      -----------------------------------------------------------      
     |                   =====================                   |     
     |                           x T B                           |     
     |                   =====================                   |     
     |                         S. Grimme                         |     
     |          Mulliken Center for Theoretical Chemistry        |     
     |                    University of Bonn                     |     
      -----------------------------------------------------------      

   * xtb version 6.7.1 (edcfbbe) compiled by 'albert@albert-system' on 2024-07-22

   xtb is free software: you can redistribute it and/or modify it under
   the terms of the GNU Lesser General Public License as published by
   the Free Software Foundation, either version 3 of the License, or
   (at your option) any later version.
   
   xtb is distributed in the hope that it will be useful,
   but WITHOUT ANY WARRANTY; without even the implied warranty of
   MERCHANTABILITY or FITNESS FOR A PARTICULAR PURPOSE.  See the
   GNU Lesser General Public License for more details.
   
   Cite this work as:
   * C. Bannwarth, E. Caldeweyher, S. Ehlert, A. Hansen, P. Pracht,
     J. Seibert, S. Spicher, S. Grimme, WIREs Comput. Mol. Sci., 2020, 11,
     e01493. DOI: 10.1002/wcms.1493
   
   for GFN2-xTB:
   * C. Bannwarth, S. Ehlert and S. Grimme., J. Chem. Theory Comput., 2019,
     15, 1652-1671. DOI: 10.1021/acs.jctc.8b01176
   for GFN1-xTB:
   * S. Grimme, C. Bannwarth, P. Shushkov, J. Chem. Theory Comput., 2017,
     13, 1989-2009. DOI: 10.1021/acs.jctc.7b00118
   for GFN0-xTB:
   * P. Pracht, E. Caldeweyher, S. Ehlert, S. Grimme, ChemRxiv, 2019, preprint.
     DOI: 10.26434/chemrxiv.8326202.v1
   for GFN-FF:
   * S. Spicher and S. Grimme, Angew. Chem. Int. Ed., 2020, 59, 15665-15673.
     DOI: 10.1002/anie.202004239
   
   for ALPB and GBSA implicit solvation:
   * S. Ehlert, M. Stahn, S. Spicher, S. Grimme, J. Chem. Theory Comput.,
     2021, 17, 4250-4261. DOI: 10.1021/acs.jctc.1c00471
   
   for ddCOSMO and CPCM-X implicit solvation:
   * M. Stahn, S. Ehlert, S. Grimme, J. Phys. Chem. A,
     2023, XX, XXXX-XXXX. DOI: 10.1021/acs.jpca.3c04382
   
   for DFT-D4:
   * E. Caldeweyher, C. Bannwarth and S. Grimme, J. Chem. Phys., 2017,
     147, 034112. DOI: 10.1063/1.4993215
   * E. Caldeweyher, S. Ehlert, A. Hansen, H. Neugebauer, S. Spicher,
     C. Bannwarth and S. Grimme, J. Chem. Phys., 2019, 150, 154122.
     DOI: 10.1063/1.5090222
   * E. Caldeweyher, J.-M. Mewes, S. Ehlert and S. Grimme, Phys. Chem. Chem. Phys.
     2020, 22, 8499-8512. DOI: 10.1039/D0CP00502A
   
   for sTDA-xTB:
   * S. Grimme and C. Bannwarth, J. Chem. Phys., 2016, 145, 054103.
     DOI: 10.1063/1.4959605
   
   in the mass-spec context:
   * V. Asgeirsson, C. Bauer and S. Grimme, Chem. Sci., 2017, 8, 4879.
     DOI: 10.1039/c7sc00601b
   * J. Koopman and S. Grimme, ACS Omega 2019, 4, 12, 15120-15133.
     DOI: 10.1021/acsomega.9b02011
   
   for metadynamics refer to:
   * S. Grimme, J. Chem. Theory Comput., 2019, 155, 2847-2862
     DOI: 10.1021/acs.jctc.9b00143
   
   for SPH calculations refer to:
   * S. Spicher and S. Grimme, J. Chem. Theory Comput., 2021, 17, 1701-1714
     DOI: 10.1021/acs.jctc.0c01306
   
   for ONIOM refer to:
   * C. Plett, A. Katbashev, S. Ehlert, S. Grimme, M. Bursch,
     Phys. Chem. Chem. Phys., 2023, 25, 17860-17868. DOI: 10.1039/D3CP02178E
   
   for DIPRO refer to:
   * J. Kohn, N. Gildemeister, S. Grimme, D. Fazzi, A. Hansen,
     J. Chem. Phys., 2023, just accepted.
   
   for PTB refer to:
   * S. Grimme, M. Mueller, A. Hansen, J. Chem. Phys., 2023, 158, 124111.
     DOI: 10.1063/5.0137838
   
   with help from (in alphabetical order)
   P. Atkinson, C. Bannwarth, F. Bohle, G. Brandenburg, E. Caldeweyher
   M. Checinski, S. Dohm, S. Ehlert, S. Ehrlich, I. Gerasimov, C. Hölzer
   A. Katbashev, J. Kohn, J. Koopman, C. Lavigne, S. Lehtola, F. März, M. Müller,
   F. Musil, H. Neugebauer, J. Pisarek, C. Plett, P. Pracht, F. Pultar,
   J. Seibert, P. Shushkov, S. Spicher, M. Stahn, M. Steiner, T. Strunk,
   J. Stückrath, T. Rose, and J. Unsleber
   
 * started run on 2025/04/11 at 11:52:04.915     
   ID    Z sym.   atoms
    1    6 C      1-4, 7
    2    8 O      5, 6
    3    1 H      8-17

           -------------------------------------------------
          |                Calculation Setup                |
           -------------------------------------------------

          program call               : /srv/scratch/z5358697/.xtb/bin/xtb xtb_opt.coord --opt normal --orca -I xtb_opt-xcontrol-inp
          hostname                   : k064
          coordinate file            : xtb_opt.coord
          omp threads                :                    16

           -------------------------------------------------
          |                   Orca driver                   |
           -------------------------------------------------
orca executable           : /apps/z_install_tree/linux-rocky8-ivybridge/gcc-12.2.0/orca-6.0.0-srtngmq3qlimg2qxbl6avaaiffipurdx/bin/orca
orca input file           : xtb_opt.inp
orca input line           : 
orca parallel             : true
orca number of threads    : 16
                         * ORCA takes the control...
  ------------------------------------------------------------------------

                                 *****************
                                 * O   R   C   A *
                                 *****************

                                            #,                                       
                                            ###                                      
                                            ####                                     
                                            #####                                    
                                            ######                                   
                                           ########,                                 
                                     ,,################,,,,,                         
                               ,,#################################,,                 
                          ,,##########################################,,             
                       ,#########################################, ''#####,          
                    ,#############################################,,   '####,        
                  ,##################################################,,,,####,       
                ,###########''''           ''''###############################       
              ,#####''   ,,,,##########,,,,          '''####'''          '####       
            ,##' ,,,,###########################,,,                        '##       
           ' ,,###''''                  '''############,,,                           
         ,,##''                                '''############,,,,        ,,,,,,###''
      ,#''                                            '''#######################'''  
     '                                                          ''''####''''         
             ,#######,   #######,   ,#######,      ##                                
            ,#'     '#,  ##    ##  ,#'     '#,    #''#        ,####,   ,####,        
            ##       ##  ##   ,#'  ##            #'  '#       #'       #'  '#        
            ##       ##  #######   ##           ,######,      #####,   #    #        
            '#,     ,#'  ##    ##  '#,     ,#' ,#      #,     #,   #   #,  ,#        
             '#######'   ##     ##  '#######'  #'      '#     '####' # '####'        



                #########################################################
                #                        -***-                          #
                #          Department of theory and spectroscopy        #
                #                                                       #
                #                      Frank Neese                      #
                #                                                       #
                #     Directorship, Architecture, Infrastructure        #
                #                    SHARK, DRIVERS                     #
                #        Core code/Algorithms in most modules           #
                #                                                       #
                #        Max Planck Institute fuer Kohlenforschung      #
                #                Kaiser Wilhelm Platz 1                 #
                #                 D-45470 Muelheim/Ruhr                 #
                #                      Germany                          #
                #                                                       #
                #                  All rights reserved                  #
                #                        -***-                          #
                #########################################################


                         Program Version 6.0.0  -   RELEASE  -


 With contributions from (in alphabetic order):
   Daniel Aravena         : Magnetic Suceptibility
   Michael Atanasov       : Ab Initio Ligand Field Theory (pilot matlab implementation)
   Alexander A. Auer      : GIAO ZORA, VPT2 properties, NMR spectrum
   Ute Becker             : All parallelization in ORCA, NUMFREQ, NUMCALC
   Giovanni Bistoni       : ED, misc. LED, open-shell LED, HFLD
   Martin Brehm           : Molecular dynamics
   Dmytro Bykov           : pre 5.0 version of the SCF Hessian
   Marcos Casanova-Páez   : Triplet and SCS-CIS(D). UHF-(DLPNO)-IP/EA/STEOM-CCSD. UHF-CVS-IP/STEOM-CCSD
   Vijay G. Chilkuri      : MRCI spin determinant printing, contributions to CSF-ICE
   Pauline Colinet        : FMM embedding
   Dipayan Datta          : RHF DLPNO-CCSD density
   Achintya Kumar Dutta   : EOM-CC, STEOM-CC
   Nicolas Foglia         : Exact transition moments, OPA infrastructure, MCD improvements
   Dmitry Ganyushin       : Spin-Orbit,Spin-Spin,Magnetic field MRCI
   Miquel Garcia          : C-PCM and meta-GGA Hessian, CCSD/C-PCM, Gaussian charge scheme
   Tiago L. C. Gouveia    : GS-ROHF, GS-ROCIS
   Yang Guo               : DLPNO-NEVPT2, F12-NEVPT2, CIM, IAO-localization
   Andreas Hansen         : Spin unrestricted coupled pair/coupled cluster methods
   Ingolf Harden          : AUTO-CI MPn and infrastructure 
   Benjamin Helmich-Paris : MC-RPA, TRAH-(SCF,CASSCF), AVAS, COSX integrals, SCF dyn. polar.
   Lee Huntington         : MR-EOM, pCC
   Robert Izsak           : Overlap fitted RIJCOSX, COSX-SCS-MP3, EOM
   Riya Kayal             : Wick's Theorem for AUTO-CI, AUTO-CI UHF-CCSDT
   Emily Kempfer          : AUTO-CI, RHF CISDT and CCSDT
   Christian Kollmar      : KDIIS, OOCD, Brueckner-CCSD(T), CCSD density, CASPT2, CASPT2-K, improved NEVPT2
   Axel Koslowski         : Symmetry handling
   Simone Kossmann        : Meta GGA functionals, TD-DFT gradient, OOMP2, (MP2 Hessian; deprecated post 5.0)
   Lucas Lang             : DCDCAS
   Marvin Lechner         : AUTO-CI (C++ implementation), FIC-MRCC
   Spencer Leger          : CASSCF response
   Dagmar Lenk            : GEPOL surface, SMD, ORCA-2-JSON
   Dimitrios Liakos       : Extrapolation schemes; Compound Job, initial MDCI parallelization
   Dimitrios Manganas     : Further ROCIS development; embedding schemes. LFT, Crystal Embedding
   Dimitrios Pantazis     : SARC Basis sets
   Anastasios Papadopoulos: AUTO-CI, single reference methods and gradients
   Taras Petrenko         : pre 6.0 DFT Hessian and TD-DFT gradient, (ASA, deprecated), ECA, 1-Electron XAS/XES, NRVS
   Peter Pinski           : DLPNO-MP2, DLPNO-MP2 Gradient
   Christoph Reimann      : Effective Core Potentials
   Marius Retegan         : Local ZFS, SOC
   Christoph Riplinger    : Optimizer, TS searches, QM/MM, DLPNO-CCSD(T), (RO)-DLPNO pert. Triples
   Michael Roemelt        : Original ROCIS implementation
   Masaaki Saitow         : Open-shell DLPNO-CCSD energy and density
   Barbara Sandhoefer     : DKH picture change effects
   Kantharuban Sivalingam : CASSCF convergence/infrastructure, NEVPT2 and variants, FIC-MRCI
   Bernardo de Souza      : ESD, SOC TD-DFT
   Georgi Stoychev        : AutoAux, RI-MP2 NMR, DLPNO-MP2 response, X2C
   Van Anh Tran           : RI-MP2 g-tensors
   Willem Van den Heuvel  : Paramagnetic NMR
   Zikuan Wang            : NOTCH, Electric field optimization 
   Frank Wennmohs         : Technical directorship and infrastructure
   Hang Xu                : AUTO-CI-Response properties 


 We gratefully acknowledge several colleagues who have allowed us to
 interface, adapt or use parts of their codes:
   Stefan Grimme, W. Hujo, H. Kruse, P. Pracht,  : VdW corrections, initial TS optimization,
                  C. Bannwarth, S. Ehlert,         DFT functionals, gCP, sTDA/sTD-DF
                  L. Wittmann, M. Mueller
   Ed Valeev, F. Pavosevic, A. Kumar             : LibInt (2-el integral package), F12 methods
   Garnet Chan, S. Sharma, J. Yang, R. Olivares  : DMRG
   Ulf Ekstrom                                   : XCFun DFT Library
   Mihaly Kallay                                 : mrcc  (arbitrary order and MRCC methods)
   Frank Weinhold                                : gennbo (NPA and NBO analysis)
   Simon Mueller                                 : openCOSMO-RS
   Christopher J. Cramer and Donald G. Truhlar   : smd solvation model
   Lars Goerigk                                  : TD-DFT with DH, B97 family of functionals
   V. Asgeirsson, H. Jonsson                     : NEB implementation
   FAccTs GmbH                                   : IRC, NEB, NEB-TS, DLPNO-Multilevel, CI-OPT
                                                   MM, QMMM, 2- and 3-layer-ONIOM, Crystal-QMMM,
                                                   LR-CPCM, SF, NACMEs, symmetry and pop. for TD-DFT,
                                                   nearIR, NL-DFT gradient (VV10), updates on ESD,
                                                   ML-optimized integration grids, MBIS, APM,
                                                   GOAT, DOCKER, SOLVATOR, interface openCOSMO-RS
   S Lehtola, MJT Oliveira, MAL Marques          : LibXC Library
   Liviu Ungur et al                             : ANISO software


 Your calculation uses the libint2 library for the computation of 2-el integrals
 For citations please refer to: http://libint.valeyev.net

 Your ORCA version has been built with support for libXC version: 6.2.2
 For citations please refer to: https://libxc.gitlab.io

 This ORCA versions uses:
   CBLAS   interface :  Fast vector & matrix operations
   LAPACKE interface :  Fast linear algebra routines
   SCALAPACK package :  Parallel linear algebra routines
   Shared memory     :  Shared parallel matrices
   BLAS/LAPACK       :  OpenBLAS 0.3.27  USE64BITINT DYNAMIC_ARCH NO_AFFINITY SkylakeX SINGLE_THREADED
        Core in use  :  SkylakeX
   Copyright (c) 2011-2014, The OpenBLAS Project




***************************************
The coordinates will be read from file: xtb_opt.xyz
***************************************


Your calculation utilizes the geometrical counterpoise correction gCP
Please cite in your paper:
H.Kruse, S. Grimme J.Chem.Phys., 136, (2012), 154101 
   

Your calculation utilizes the atom-pairwise dispersion correction
based on EEQ partial charges (D4)


Your calculation utilizes the SMD solvation module
Please cite in your paper:
A.V. Marenich, C.J. Cramer, D.G. Truhlar J. Phys. Chem. B, 113, (2009), 6378 

================================================================================

----- Orbital basis set information -----
Your calculation utilizes the basis: def2-mTZVPP
   Stefan Grimme, Andreas Hansen, Sebastian Ehlert, and Jan-Michael Mewes 
   J. Chem. Phys. 154, 064103 (2021). DOI: 10.1063/5.0040021

----- AuxJ basis set information -----
Your calculation utilizes the auxiliary basis: def2/J
   F. Weigend, Phys. Chem. Chem. Phys. 8, 1057 (2006).

================================================================================
                                        WARNINGS
                       Please study these warnings very carefully!
================================================================================

Using LibXC functional ID 497 : Re-regularized SCAN exchange by Furness et al
[ 1]  J. W. Furness, A. D. Kaplan, J. Ning, J. P. Perdew, and J. Sun.,  J. Phys. Chem. Lett. 11, 8208-8215 (2020)
[ 2]  J. W. Furness, A. D. Kaplan, J. Ning, J. P. Perdew, and J. Sun.,  J. Phys. Chem. Lett. 11, 9248-9248 (2020)
Using LibXC functional ID 498 : Re-regularized SCAN correlation by Furness et al
[ 1]  J. W. Furness, A. D. Kaplan, J. Ning, J. P. Perdew, and J. Sun.,  J. Phys. Chem. Lett. 11, 8208-8215 (2020)
[ 2]  J. W. Furness, A. D. Kaplan, J. Ning, J. P. Perdew, and J. Sun.,  J. Phys. Chem. Lett. 11, 9248-9248 (2020)
Using LibXC functional ID 497 : Re-regularized SCAN exchange by Furness et al
[ 1]  J. W. Furness, A. D. Kaplan, J. Ning, J. P. Perdew, and J. Sun.,  J. Phys. Chem. Lett. 11, 8208-8215 (2020)
[ 2]  J. W. Furness, A. D. Kaplan, J. Ning, J. P. Perdew, and J. Sun.,  J. Phys. Chem. Lett. 11, 9248-9248 (2020)
Using LibXC functional ID 498 : Re-regularized SCAN correlation by Furness et al
[ 1]  J. W. Furness, A. D. Kaplan, J. Ning, J. P. Perdew, and J. Sun.,  J. Phys. Chem. Lett. 11, 8208-8215 (2020)
[ 2]  J. W. Furness, A. D. Kaplan, J. Ning, J. P. Perdew, and J. Sun.,  J. Phys. Chem. Lett. 11, 9248-9248 (2020)

================================================================================
                                       INPUT FILE
================================================================================
NAME = xtb_opt.inp
|  1> ! r2scan-3c def2/J RI DEFGRID2 scfconv7 ENGRAD tightSCF miniprint
|  2> %cpcm
|  3>     smd true
|  4>     smdsolvent "water"
|  5> end
|  6> * xyzfile 0 1 xtb_opt.xyz
|  7> 
|  8>                          ****END OF INPUT****
================================================================================

                     *******************************
                     * Energy+Gradient Calculation *
                     *******************************

---------------------------------
CARTESIAN COORDINATES (ANGSTROEM)
---------------------------------
  C     -2.157188    1.098187    0.539315
  C     -2.085477   -0.290050   -0.085088
  C     -0.831013   -0.455713   -0.949128
  C      0.413159   -0.420422   -0.100898
  O      0.616977   -1.116559    0.871536
  O      1.285988    0.478813   -0.543765
  C      2.521157    0.609595    0.164504
  H     -2.149691    1.865177   -0.231409
  H     -3.066550    1.203671    1.124761
  H     -1.306106    1.263187    1.197470
  H     -2.965198   -0.458581   -0.706516
  H     -2.069182   -1.046453    0.701818
  H     -0.763492    0.331671   -1.698793
  H     -0.859564   -1.426950   -1.446108
  H      3.086844   -0.320570    0.100812
  H      2.327710    0.835168    1.213950
  H      3.052057    1.423126   -0.319328

----------------------------
CARTESIAN COORDINATES (A.U.)
----------------------------
  NO LB      ZA    FRAG     MASS         X           Y           Z
   0 C     6.0000    0    12.011   -4.076495    2.075273    1.019158
   1 C     6.0000    0    12.011   -3.940981   -0.548114   -0.160793
   2 C     6.0000    0    12.011   -1.570387   -0.861173   -1.793592
   3 C     6.0000    0    12.011    0.780758   -0.794483   -0.190670
   4 O     8.0000    0    15.999    1.165918   -2.109991    1.646965
   5 O     8.0000    0    15.999    2.430165    0.904825   -1.027568
   6 C     6.0000    0    12.011    4.764296    1.151968    0.310867
   7 H     1.0000    0     1.008   -4.062328    3.524675   -0.437299
   8 H     1.0000    0     1.008   -5.794940    2.274608    2.125491
   9 H     1.0000    0     1.008   -2.468182    2.387078    2.262890
  10 H     1.0000    0     1.008   -5.603413   -0.866593   -1.335121
  11 H     1.0000    0     1.008   -3.910188   -1.977510    1.326244
  12 H     1.0000    0     1.008   -1.442791    0.626767   -3.210253
  13 H     1.0000    0     1.008   -1.624340   -2.696545   -2.732749
  14 H     1.0000    0     1.008    5.833289   -0.605790    0.190508
  15 H     1.0000    0     1.008    4.398735    1.578239    2.294033
  16 H     1.0000    0     1.008    5.767552    2.689319   -0.603442

------------------------------------------------------------------------------
                   ___                                                        
                  /   \      - P O W E R E D   B Y -                         
                 /     \                                                     
                 |  |  |   _    _      __       _____    __    __             
                 |  |  |  | |  | |    /  \     |  _  \  |  |  /  |          
                  \  \/   | |  | |   /    \    | | | |  |  | /  /          
                 / \  \   | |__| |  /  /\  \   | |_| |  |  |/  /          
                |  |  |   |  __  | /  /__\  \  |    /   |      \           
                |  |  |   | |  | | |   __   |  |    \   |  |\   \          
                \     /   | |  | | |  |  |  |  | |\  \  |  | \   \       
                 \___/    |_|  |_| |__|  |__|  |_| \__\ |__|  \__/        
                                                                              
                      - O R C A' S   B I G   F R I E N D -                    
                                      &                                       
                       - I N T E G R A L  F E E D E R -                       
                                                                              
 v1 FN, 2020, v2 2021, v3 2022-2024                                           
------------------------------------------------------------------------------


----------------------
SHARK INTEGRAL PACKAGE
----------------------

Number of atoms                             ...     17
Number of basis functions                   ...    193
Number of shells                            ...     95
Maximum angular momentum                    ...      2
Integral batch strategy                     ... SHARK/LIBINT Hybrid
RI-J (if used) integral strategy            ... SPLIT-RIJ (Revised 2003 algorithm where possible)
Printlevel                                  ...      1
Contraction scheme used                     ... SEGMENTED contraction
Prescreening option                         ... SCHWARTZ
   Thresh                                   ... 3.000e-11
   Tcut                                     ... 1.000e-12
   Tpresel                                  ... 1.000e-12 
Coulomb Range Separation                    ... NOT USED
Exchange Range Separation                   ... NOT USED
Multipole approximations                    ... NOT USED
Finite Nucleus Model                        ... NOT USED
CABS basis                                  ... NOT available
Auxiliary Coulomb fitting basis             ... AVAILABLE
   # of basis functions in Aux-J            ...    453
   # of shells in Aux-J                     ...    155
   Maximum angular momentum in Aux-J        ...      4
Auxiliary J/K fitting basis                 ... NOT available
Auxiliary Correlation fitting basis         ... NOT available
Auxiliary 'external' fitting basis          ... NOT available

Checking pre-screening integrals            ... done (  0.0 sec) Dimension = 95
Check shell pair data                       ... done (  0.0 sec)
Shell pair information
Shell pair cut-off parameter TPreSel        ...   1.0e-12
Total number of shell pairs                 ...      4560
Shell pairs after pre-screening             ...      4173
Total number of primitive shell pairs       ...     16115
Primitive shell pairs kept                  ...     10729
          la=0 lb=0:   1384 shell pairs
          la=1 lb=0:   1555 shell pairs
          la=1 lb=1:    458 shell pairs
          la=2 lb=0:    465 shell pairs
          la=2 lb=1:    266 shell pairs
          la=2 lb=2:     45 shell pairs

Calculating one electron integrals          ... done (  0.0 sec)
Calculating RI/J V-Matrix + Cholesky decomp.... done (  0.1 sec)
Calculating Nuclear repulsion               ... done (  0.0 sec) ENN=    319.299349435229 Eh

Diagonalization of the overlap matrix:
Smallest eigenvalue                        ... 1.976e-04
Time for diagonalization                   ...    0.006 sec
Threshold for overlap eigenvalues          ... 1.000e-07
Number of eigenvalues below threshold      ... 0
Time for construction of square roots      ...    0.015 sec
Total time needed                          ...    0.031 sec

-------------------
DFT GRID GENERATION
-------------------

General Integration Accuracy     IntAcc      ... 4.388
Radial Grid Type                 RadialGrid  ... OptM3 with GC (2021)
Angular Grid (max. ang.)         AngularGrid ... 4 (Lebedev-302)
Angular grid pruning method      GridPruning ... 4 (adaptive)
Weight generation scheme         WeightScheme... mBecke (2022)
Basis function cutoff            BFCut       ... 1.0000e-11
Integration weight cutoff        WCut        ... 1.0000e-14
Partially contracted basis set               ... off
Rotationally invariant grid construction     ... off
Angular grids for H and He will be reduced by one unit
Diffuse basis detected: some atoms will have their outermost
                        angular grid increased by 1.

Total number of grid points                  ...    75056
Total number of batches                      ...     1182
Average number of points per batch           ...       63
Average number of grid points per atom       ...     4415
Initializing property integral containers    ... done (  0.0 sec)

SHARK setup successfully completed in   1.3 seconds

Maximum memory used throughout the entire STARTUP-calculation: 33.8 MB
Occupation numbers will be reassigned to an Aufbau configuration
             **** ENERGY FILE WAS UPDATED (xtb_opt.en.tmp) ****
Finished Guess after   0.5 sec
Maximum memory used throughout the entire GUESS-calculation: 13.1 MB
--------------------
CPCM SOLVATION MODEL
--------------------
CPCM parameters:
  Epsilon                                         ...      78.3550
  Refrac                                          ...       1.3328
  Rsolv                                           ...       1.3000
  Surface type                                    ... GAUSSIAN VDW
  Discretization scheme                           ... Constant charge density
    Threshold for H atoms                         ...       5.0000 (charges/Ang^2)
    Threshold for non-H atoms                     ...       5.0000 (charges/Ang^2)
  Epsilon function type                           ...         CPCM
Solvent:                                          ... WATER
SMD-CDS solvent descriptors:
  Soln                                            ...       1.3328
  Soln25                                          ...       1.3323
  Sola                                            ...       0.0000
  Solb                                            ...       0.0000
  Solg                                            ...       0.0000
  Solc                                            ...       0.0000
  Solh                                            ...       0.0000
Radii:
  Scheme                                          ... Element-dependent radii
  Radius for C  used is    3.4960 Bohr (=   1.8500 Ang.)
  Radius for O  used is    2.8724 Bohr (=   1.5200 Ang.)
  Radius for H  used is    2.2677 Bohr (=   1.2000 Ang.)
Calculating surface                               ...        done! (  0.0s)
Cavity surface points                             ...         1300
Cavity Volume                                     ...     759.2898
Cavity Surface-area                               ...     513.5274
Calculating surface distance matrix               ...        done! (  0.0s)
Performing Cholesky decomposition & store         ...        done! (  0.1s)
Overall time for CPCM initialization              ...                 0.1s

----------------------------------------D-I-I-S--------------------------------------------
Iteration    Energy (Eh)           Delta-E    RMSDP     MaxDP     DIISErr   Damp  Time(sec)
-------------------------------------------------------------------------------------------
               ***  Starting incremental Fock matrix formation  ***
                              *** Initializing SOSCF ***
---------------------------------------S-O-S-C-F--------------------------------------
Iteration    Energy (Eh)           Delta-E    RMSDP     MaxDP     MaxGrad    Time(sec)
--------------------------------------------------------------------------------------
    1    -346.9519743634419342     0.00e+00  7.56e-06  2.49e-04  4.09e-05     3.1
               *** Restarting incremental Fock matrix formation ***
    2    -346.9519742928220580     7.06e-08  1.21e-05  3.91e-04  1.13e-04     3.1
    3    -346.9519735314929108     7.61e-07  8.78e-06  2.57e-04  2.34e-04     2.4
    4    -346.9519745869609437    -1.06e-06  1.49e-06  4.23e-05  1.65e-05     2.4
                  *** Gradient check signals convergence ***

               *****************************************************
               *                     SUCCESS                       *
               *           SCF CONVERGED AFTER   4 CYCLES          *
               *****************************************************


SMD CDS free energy correction energy :                 4.95840     Kcal/mol
Total Energy after SMD CDS correction =              -346.944072871 Eh
             **** ENERGY FILE WAS UPDATED (xtb_opt.en.tmp) ****

----------------
TOTAL SCF ENERGY
----------------

Total Energy       :       -346.94407287103166 Eh           -9440.82819 eV

Components:
Nuclear Repulsion  :        319.29934943522875 Eh            8688.57702 eV
Electronic Energy  :       -666.23550767072402 Eh          -18129.18983 eV
One Electron Energy:      -1104.10279141049045 Eh          -30044.16437 eV
Two Electron Energy:        437.86728373976638 Eh           11914.97454 eV
CPCM Dielectric    :         -0.01581635146568 Eh              -0.43038 eV
SMD CDS (Gcds)     :          0.00790171592926 Eh               0.21502 eV

Virial components:
Potential Energy   :       -692.47035063875387 Eh          -18843.07620 eV
Kinetic Energy     :        345.52627776772226 Eh            9402.24802 eV
Virial Ratio       :          2.00410329168730

DFT components:
N(Alpha)           :       27.999981241170 electrons
N(Beta)            :       27.999981241170 electrons
N(Total)           :       55.999962482340 electrons
E(X)               :      -46.161385686721 Eh       
E(C)               :       -1.788390187448 Eh       
E(XC)              :      -47.949775874170 Eh       

CPCM Solvation Model Properties:
Surface-charge          :         -0.04312911581612
Corrected charge        :         -0.00000000000000
Outlying charge corr.   :          0.00014973913109 Eh               0.00407 eV
Free-energy (cav+disp)  :          0.00790171592926 Eh               0.21502 eV

---------------
SCF CONVERGENCE
---------------

  Last Energy change         ...    1.0555e-06  Tolerance :   1.0000e-07
  Last MAX-Density change    ...    4.2266e-05  Tolerance :   1.0000e-07
  Last RMS-Density change    ...    1.4890e-06  Tolerance :   5.0000e-09
  Last DIIS Error            ...    3.5083e-04  Tolerance :   1.0000e-07
  Last Orbital Gradient      ...    1.6506e-05  Tolerance :   1.0000e-04
  Last Orbital Rotation      ...    5.9723e-05  Tolerance :   1.0000e-04


----------------
ORBITAL ENERGIES
----------------

  NO   OCC          E(Eh)            E(eV) 
   0   2.0000     -19.005219      -517.1583 
   1   2.0000     -18.944629      -515.5096 
   2   2.0000     -10.162636      -276.5394 
   3   2.0000     -10.076438      -274.1938 
   4   2.0000     -10.035704      -273.0854 
   5   2.0000     -10.028194      -272.8810 
   6   2.0000     -10.011440      -272.4251 
   7   2.0000      -1.080451       -29.4006 
   8   2.0000      -0.989671       -26.9303 
   9   2.0000      -0.767267       -20.8784 
  10   2.0000      -0.706576       -19.2269 
  11   2.0000      -0.654093       -17.7988 
  12   2.0000      -0.568433       -15.4678 
  13   2.0000      -0.525799       -14.3077 
  14   2.0000      -0.473216       -12.8769 
  15   2.0000      -0.460008       -12.5175 
  16   2.0000      -0.451083       -12.2746 
  17   2.0000      -0.414615       -11.2823 
  18   2.0000      -0.411130       -11.1874 
  19   2.0000      -0.372087       -10.1250 
  20   2.0000      -0.365723        -9.9518 
  21   2.0000      -0.357997        -9.7416 
  22   2.0000      -0.328204        -8.9309 
  23   2.0000      -0.306068        -8.3285 
  24   2.0000      -0.305500        -8.3131 
  25   2.0000      -0.303512        -8.2590 
  26   2.0000      -0.282376        -7.6838 
  27   2.0000      -0.253666        -6.9026 
  28   0.0000      -0.024492        -0.6665 
  29   0.0000       0.069823         1.9000 
  30   0.0000       0.098590         2.6828 
  31   0.0000       0.122522         3.3340 
  32   0.0000       0.133720         3.6387 
  33   0.0000       0.144161         3.9228 
  34   0.0000       0.146125         3.9763 
  35   0.0000       0.154112         4.1936 
  36   0.0000       0.171598         4.6694 
  37   0.0000       0.176711         4.8086 
  38   0.0000       0.185843         5.0571 
*Only the first 10 virtual orbitals were printed.
Total SCF time: 0 days 0 hours 0 min 11 sec 
Finished LeanSCF after  11.7 sec

Maximum memory used throughout the entire LEANSCF-calculation: 24.2 MB


-------------------------------------------------------------------------------
                          DFT DISPERSION CORRECTION                            
                                                                               
                                DFTD4 V3.4.0                                   
-------------------------------------------------------------------------------
-------------------------   ----------------
Dispersion correction           -0.004122603
-------------------------   ----------------

------------------   -----------------
gCP correction             0.010658030
------------------   -----------------

-------------------------   --------------------
FINAL SINGLE POINT ENERGY      -346.937537443163
-------------------------   --------------------

------------------------------------------------------------------------------
                         ORCA SCF GRADIENT CALCULATION
------------------------------------------------------------------------------

Nuc. rep. gradient        (SHARK) ... done (  0.0 sec)
HCore & Overlap gradient  (SHARK) ... done (  0.2 sec)
Split-RIJ-J gradient      (SHARK) ... done (  1.4 sec)
XC gradient                       ... done (  6.0 sec)
CPCM gradient                     ... done (  0.8 sec)
SMD gradient                      ... done (  0.0 sec)
Dispersion correction             ... done (  0.0 sec)

-------------------
DISPERSION GRADIENT
-------------------

   1   C   :   -0.000071723    0.000044144    0.000022936
   2   C   :   -0.000061900   -0.000013628   -0.000003579
   3   C   :   -0.000032826   -0.000025512   -0.000041641
   4   C   :    0.000038823   -0.000021907   -0.000005375
   5   O   :    0.000039709   -0.000055329    0.000035369
   6   O   :    0.000069998    0.000009599   -0.000017308
   7   C   :    0.000086483    0.000014486    0.000012663
   8   H   :   -0.000031404    0.000026315    0.000003136
   9   H   :   -0.000028464    0.000017472    0.000015139
  10   H   :   -0.000031423    0.000019410    0.000018200
  11   H   :   -0.000027634   -0.000003899   -0.000006168
  12   H   :   -0.000021506   -0.000010472    0.000006366
  13   H   :   -0.000009743   -0.000001692   -0.000026888
  14   H   :   -0.000008040   -0.000024394   -0.000021474
  15   H   :    0.000026041    0.000004840    0.000002568
  16   H   :    0.000034615    0.000007369    0.000007201
  17   H   :    0.000028995    0.000013198   -0.000001145

Difference to translation invariance:
           :   -0.0000000000   -0.0000000000   -0.0000000000

Difference to rotation invariance:
           :    0.0000000000   -0.0000000000   -0.0000000000

Norm of the Dispersion gradient    ...    0.0002174534
RMS gradient                       ...    0.0000304496
MAX gradient                       ...    0.0000864832
gCP correction                   ... done

------------------
CARTESIAN GRADIENT
------------------

   1   C   :    0.000183502    0.005971434    0.001405712
   2   C   :   -0.003269169   -0.004057719   -0.000251764
   3   C   :    0.000291280   -0.000048632   -0.004996769
   4   C   :    0.008809577    0.001119837    0.006958324
   5   O   :   -0.001124667    0.008121870   -0.010600835
   6   O   :    0.000625783   -0.010532781    0.012656845
   7   C   :   -0.004505795    0.003504887   -0.007395739
   8   H   :    0.000146747   -0.004228583    0.002869555
   9   H   :    0.003628031   -0.001913762   -0.003168828
  10   H   :   -0.003528185   -0.002317303   -0.003464172
  11   H   :    0.001867456    0.002094637    0.001560402
  12   H   :    0.002052625    0.002846710   -0.000657107
  13   H   :    0.001579062   -0.000145524    0.002987480
  14   H   :   -0.001612184    0.002370518    0.002379418
  15   H   :   -0.002390317    0.001000322    0.000891992
  16   H   :   -0.000710108   -0.002163407   -0.001590323
  17   H   :   -0.002043637   -0.001622504    0.000415810

Difference to translation invariance:
           :    0.0000000000    0.0000000000   -0.0000000000

Difference to rotation invariance:
           :   -0.0003746572   -0.0002252540    0.0001006769

Norm of the Cartesian gradient     ...    0.0301503349
RMS gradient                       ...    0.0042218914
MAX gradient                       ...    0.0126568448

-------
TIMINGS
-------

Total SCF gradient time     ....        9.156 sec

Densities                   ....       0.001 sec  (  0.0%)
One electron gradient       ....       0.248 sec  (  2.7%)
RI-J Coulomb gradient       ....       1.404 sec  ( 15.3%)
XC gradient                 ....       6.000 sec  ( 65.5%)
CPCM gradient               ....       0.781 sec  (  8.5%)
   A-Matrix (El+Nuc)        ....       0.063 sec  (  0.7%)
   Potential                ....       0.718 sec  (  7.8%)
SMD gradient                ....       0.013 sec  (  0.1%)

Maximum memory used throughout the entire SCFGRAD-calculation: 33.3 MB

------------------------------------------------------------------------------
                              ORCA PROPERTY CALCULATIONS
------------------------------------------------------------------------------

GBWName                                 ... xtb_opt.gbw
Number of atoms                         ...     17
Number of basis functions               ...    193
Max core memory                         ...   1024 MB

Electric properties:
Dipole moment                           ... YES
Quadrupole moment                       ...  NO
Static polarizability (Dipole/Dipole)   ...  NO
Static polarizability (Dipole/Quad.)    ...  NO
Static polarizability (Quad./Quad.)     ...  NO
Static polarizability (Velocity)        ...  NO

Atomic electric properties:
Dipole moment                           ...  NO
Quadrupole moment                       ...  NO
Static polarizability                   ...  NO

Choice of electric origin               ... Center of mass
Position of electric origin             ...    -0.000023     0.000012    -0.000003

General magnetic properties:
Magnetizability                         ...  NO

EPR properties:
g-Tensor (aka g-matrix)                 ...  NO
Zero-Field splitting spin-orbit         ...  NO
Zero-field splitting spin-spin          ...  NO
Hyperfine couplings                     ...  NO (   0 nuclei)
Quadrupole couplings                    ...  NO (   0 nuclei)
Contact density                         ...  NO (   0 nuclei)

NMR properties:
Chemical shifts                         ...  NO (   0 nuclei)
Spin-rotation constants                 ...  NO (   0 nuclei)
Spin-spin couplings                     ...  NO (   0 nuclei,    0 pairs)

Choice of magnetic origin               ... GIAO
Position of magnetic origin             ...     0.000000     0.000000     0.000000

Properties with geometric perturbations:
SCF Hessian                             ...  NO
IR spectrum                             ...  NO
VCD spectrum                            ...  NO
X-ray spectroscopy properties:
SCF XES/XAS/RIXS spectra                ...  NO


-------------
DIPOLE MOMENT
-------------

Method             : SCF
Type of density    : Electron Density
Multiplicity       :   1
Irrep              :   0
Energy             :  -346.9440728710316648 Eh
Relativity type    : 
Basis              : AO
                                X                 Y                 Z
Electronic contribution:      4.457543879      -2.688078558      -0.709896634
Nuclear contribution   :     -4.393530366       3.433098691      -0.054565831
                        -----------------------------------------
Total Dipole Moment    :      0.064013512       0.745020133      -0.764462465
                        -----------------------------------------
Magnitude (a.u.)       :      1.069371586
Magnitude (Debye)      :      2.718126559



--------------------
Rotational spectrum 
--------------------
 
Rotational constants in cm-1:             0.163335             0.051994             0.049093 
Rotational constants in MHz :          4896.656828          1558.729574          1471.779801 

Dipole components along the rotational axes: 
x,y,z [a.u.] :     0.059502     0.796692    -0.710842 
x,y,z [Debye]:     0.151243     2.025030    -1.806817 

 

Dipole moment calculation done in   0.0 sec 

Maximum memory used throughout the entire PROP-calculation: 11.7 MB

--------------------------------
SUGGESTED CITATIONS FOR THIS RUN
--------------------------------

Below you find a list of papers that are relevant to this ORCA run
We neither can nor want to force you to cite these papers, but we appreciate if you do
You receive ORCA, which is the product of decades of hard work by many enthusiastic individuals, for free
The only thing we kindly ask in return is that you cite our papers,
We deeply appreciate it, if you show your appreciation for ORCA by not just citing the generic ORCA reference.

Please note that relegating all ORCA citations to the supporting information does *not* help us.
SI sections are not indexed - citations you put there will not count into any citation statistics
But we need these citations in order to attract the funding resources that allow us to do what we are doing

Therefore, if you are a happy ORCA user, please consider citing a few of the papers listed below in the main body of your paper

In addition to the list printed below, the program has created the file xtb_opt.bibtex that contains the list in bibtex format
You can import this file easily into all common literature databanks and citation aid programs


List of essential papers. We consider these as the minimum necessary citations

  1. Neese,F.
     Software update: the ORCA program system, version 5.0
     WIRES Comput. Molec. Sci., 2022 12(1)e1606
     doi.org/10.1002/wcms.1606
  2. Grimme,S.; Hansen,A.; Ehlert,S.; Mewes,J.
     r2SCAN-3c: A 'Swiss army knife' composite electronic-structure method
     J. Chem. Phys., 2021 154 064103
     doi.org/10.1063/5.0040021

List of papers to cite with high priority. The work reported in these papers was absolutely
necessary for this run to complete.
Our perspective: the developers of density functionals and basis sets usually get cited in chemistry papers
Good! But without the algorithms to do something with them, the functionals or basis sets would not do anything.
Hence, in our opinion, the algorithm design and method developments papers are equally worthy of getting cited

  1. Neese,F.
     An improvement of the resolution of the identity approximation for the formation of the Coulomb matrix
     J. Comp. Chem., 2003 24(14)1740-1747
     doi.org/10.1002/jcc.10318
  2. Garcia-Rates,M.; Neese,F.
     Effect of the Solute Cavity on the Solvation Energy and its Derivatives within the Framework of the Gaussian Charge Scheme
     J. Comput. Chem., 2020 41 922-939
     doi.org/10.1002/jcc.26139
  3. Neese,F.
     The SHARK Integral Generation and Digestion System
     J. Comp. Chem., 2022  1-16
     doi.org/10.1002/jcc.26942
  4. Lehtola,S.; Steigemann,C.; Oliveira,M.; Marques,M.
     Recent developments in Libxc - A comprehensive library of functionals for density functional theory
     Software X, 2018 7 
     doi.org/10.1016/j.softx.2017.11.002
  5. Caldeweyher,E.; Bannwarth,C.; Grimme,S.
     Extension of the D3 dispersion coefficient model
     J. Chem. Phys., 2017 147 034112-XXXX
     doi.org/10.1063/1.4993215
  6. Caldeweyher,E.; Ehlert,S.; Hansen,A.; Neugebauer,H.; Spicher,S.; Bannwarth,C.; Grimme,S.
     A generally applicable atomic-charge dependent London dispersion correction
     J. Chem. Phys., 2019 150 154122-XXXX
     doi.org/10.1063/1.5090222
  7. Caldeweyher,E.; Mewes,J.; Ehlert,S.; Grimme,S.
     Extension and evaluation of the D4 London-dispersion model for periodic systems
     Phys. Chem. Chem. Phys., 2020 22(16)8499-8512
     doi.org/10.1039/D0CP00502A

List of suggested additional citations. These are papers that are important in the 'surrounding' of 
of this run, or papers that preceded the highly important papers. If you like your results we are grateful for a citation.

  1. Neese,F.
     The ORCA program system
     WIRES Comput. Molec. Sci., 2012 2(1)73-78
     doi.org/10.1002/wcms.81
  2. Neese,F.
     Software update: the ORCA program system, version 4.0
     WIRES Comput. Molec. Sci., 2018 8(1)1-6
     doi.org/10.1002/wcms.1327
  3. Neese,F.; Wennmohs,F.; Becker,U.; Riplinger,C.
     The ORCA quantum chemistry program package
     J. Chem. Phys., 2020 152 Art. No. L224108
     doi.org/10.1063/5.0004608

List of optional additional citations

  1. Neese,F.
     Approximate second-order SCF convergence for spin unrestricted wavefunctions
     Chem. Phys. Lett., 2000 325(1-3)93-98
     doi.org/10.1016/s0009-2614(00)00662-x

Timings for individual modules:

Sum of individual times          ...       23.088 sec (=   0.385 min)
Startup calculation              ...        1.369 sec (=   0.023 min)   5.9 %
SCF iterations                   ...       12.235 sec (=   0.204 min)  53.0 %
Property calculations            ...        0.220 sec (=   0.004 min)   1.0 %
SCF Gradient evaluation          ...        9.263 sec (=   0.154 min)  40.1 %
                             ****ORCA TERMINATED NORMALLY****
TOTAL RUN TIME: 0 days 0 hours 0 minutes 23 seconds 972 msec
  ------------------------------------------------------------------------
          * successful ORCA run, taking over control again...

         :::::::::::::::::::::::::::::::::::::::::::::::::::::
         ::                  ORCA SUMMARY                   ::
         :::::::::::::::::::::::::::::::::::::::::::::::::::::
         :: total energy            -346.937537443163 Eh    ::
         :: gradient norm              0.030150334930 Eh/a0 ::
         :: HOMO-LUMO gap              0.000000000000 eV    ::
         :::::::::::::::::::::::::::::::::::::::::::::::::::::

      ----------------------------------------------------------- 
     |                       L-ANC optimizer                     |
      ----------------------------------------------------------- 
          low memory version by Sebastian Ehlert

          ...................................................
          :                      SETUP                      :
          :.................................................:
          :   energy convergence        0.5000000E-05 Eh    :
          :   grad. convergence         0.1000000E-02 Eh/a0 :
          :   optimization log               true           :
          :   writing optlog all                1     steps :
          :   Hessian reset                     8     steps :
          :   maximium step len.        1.0000000     a0    :
          :   LBFGS images                      8           :
          ...................................................
 * calculating model hessian...
Using Lindh-Hessian (1995)
 Shifting diagonal of input Hessian by   1.000000000000000E-002
 Lowest  eigenvalues of input Hessian
    0.000000    0.000000    0.000000    0.000000    0.000000    0.000000
    0.011667    0.013984    0.015495    0.019607    0.023239    0.025220
    0.036335    0.037630    0.043562    0.054851    0.062927    0.065353
 Highest eigenvalues
    1.190644    1.223765    1.257753    1.308070    1.813169    2.330080
 

........................................................................
.............................. CYCLE    1 ..............................
........................................................................
                         * ORCA takes the control...
  ------------------------------------------------------------------------

                                 *****************
                                 * O   R   C   A *
                                 *****************

                                            #,                                       
                                            ###                                      
                                            ####                                     
                                            #####                                    
                                            ######                                   
                                           ########,                                 
                                     ,,################,,,,,                         
                               ,,#################################,,                 
                          ,,##########################################,,             
                       ,#########################################, ''#####,          
                    ,#############################################,,   '####,        
                  ,##################################################,,,,####,       
                ,###########''''           ''''###############################       
              ,#####''   ,,,,##########,,,,          '''####'''          '####       
            ,##' ,,,,###########################,,,                        '##       
           ' ,,###''''                  '''############,,,                           
         ,,##''                                '''############,,,,        ,,,,,,###''
      ,#''                                            '''#######################'''  
     '                                                          ''''####''''         
             ,#######,   #######,   ,#######,      ##                                
            ,#'     '#,  ##    ##  ,#'     '#,    #''#        ,####,   ,####,        
            ##       ##  ##   ,#'  ##            #'  '#       #'       #'  '#        
            ##       ##  #######   ##           ,######,      #####,   #    #        
            '#,     ,#'  ##    ##  '#,     ,#' ,#      #,     #,   #   #,  ,#        
             '#######'   ##     ##  '#######'  #'      '#     '####' # '####'        



                #########################################################
                #                        -***-                          #
                #          Department of theory and spectroscopy        #
                #                                                       #
                #                      Frank Neese                      #
                #                                                       #
                #     Directorship, Architecture, Infrastructure        #
                #                    SHARK, DRIVERS                     #
                #        Core code/Algorithms in most modules           #
                #                                                       #
                #        Max Planck Institute fuer Kohlenforschung      #
                #                Kaiser Wilhelm Platz 1                 #
                #                 D-45470 Muelheim/Ruhr                 #
                #                      Germany                          #
                #                                                       #
                #                  All rights reserved                  #
                #                        -***-                          #
                #########################################################


                         Program Version 6.0.0  -   RELEASE  -


 With contributions from (in alphabetic order):
   Daniel Aravena         : Magnetic Suceptibility
   Michael Atanasov       : Ab Initio Ligand Field Theory (pilot matlab implementation)
   Alexander A. Auer      : GIAO ZORA, VPT2 properties, NMR spectrum
   Ute Becker             : All parallelization in ORCA, NUMFREQ, NUMCALC
   Giovanni Bistoni       : ED, misc. LED, open-shell LED, HFLD
   Martin Brehm           : Molecular dynamics
   Dmytro Bykov           : pre 5.0 version of the SCF Hessian
   Marcos Casanova-Páez   : Triplet and SCS-CIS(D). UHF-(DLPNO)-IP/EA/STEOM-CCSD. UHF-CVS-IP/STEOM-CCSD
   Vijay G. Chilkuri      : MRCI spin determinant printing, contributions to CSF-ICE
   Pauline Colinet        : FMM embedding
   Dipayan Datta          : RHF DLPNO-CCSD density
   Achintya Kumar Dutta   : EOM-CC, STEOM-CC
   Nicolas Foglia         : Exact transition moments, OPA infrastructure, MCD improvements
   Dmitry Ganyushin       : Spin-Orbit,Spin-Spin,Magnetic field MRCI
   Miquel Garcia          : C-PCM and meta-GGA Hessian, CCSD/C-PCM, Gaussian charge scheme
   Tiago L. C. Gouveia    : GS-ROHF, GS-ROCIS
   Yang Guo               : DLPNO-NEVPT2, F12-NEVPT2, CIM, IAO-localization
   Andreas Hansen         : Spin unrestricted coupled pair/coupled cluster methods
   Ingolf Harden          : AUTO-CI MPn and infrastructure 
   Benjamin Helmich-Paris : MC-RPA, TRAH-(SCF,CASSCF), AVAS, COSX integrals, SCF dyn. polar.
   Lee Huntington         : MR-EOM, pCC
   Robert Izsak           : Overlap fitted RIJCOSX, COSX-SCS-MP3, EOM
   Riya Kayal             : Wick's Theorem for AUTO-CI, AUTO-CI UHF-CCSDT
   Emily Kempfer          : AUTO-CI, RHF CISDT and CCSDT
   Christian Kollmar      : KDIIS, OOCD, Brueckner-CCSD(T), CCSD density, CASPT2, CASPT2-K, improved NEVPT2
   Axel Koslowski         : Symmetry handling
   Simone Kossmann        : Meta GGA functionals, TD-DFT gradient, OOMP2, (MP2 Hessian; deprecated post 5.0)
   Lucas Lang             : DCDCAS
   Marvin Lechner         : AUTO-CI (C++ implementation), FIC-MRCC
   Spencer Leger          : CASSCF response
   Dagmar Lenk            : GEPOL surface, SMD, ORCA-2-JSON
   Dimitrios Liakos       : Extrapolation schemes; Compound Job, initial MDCI parallelization
   Dimitrios Manganas     : Further ROCIS development; embedding schemes. LFT, Crystal Embedding
   Dimitrios Pantazis     : SARC Basis sets
   Anastasios Papadopoulos: AUTO-CI, single reference methods and gradients
   Taras Petrenko         : pre 6.0 DFT Hessian and TD-DFT gradient, (ASA, deprecated), ECA, 1-Electron XAS/XES, NRVS
   Peter Pinski           : DLPNO-MP2, DLPNO-MP2 Gradient
   Christoph Reimann      : Effective Core Potentials
   Marius Retegan         : Local ZFS, SOC
   Christoph Riplinger    : Optimizer, TS searches, QM/MM, DLPNO-CCSD(T), (RO)-DLPNO pert. Triples
   Michael Roemelt        : Original ROCIS implementation
   Masaaki Saitow         : Open-shell DLPNO-CCSD energy and density
   Barbara Sandhoefer     : DKH picture change effects
   Kantharuban Sivalingam : CASSCF convergence/infrastructure, NEVPT2 and variants, FIC-MRCI
   Bernardo de Souza      : ESD, SOC TD-DFT
   Georgi Stoychev        : AutoAux, RI-MP2 NMR, DLPNO-MP2 response, X2C
   Van Anh Tran           : RI-MP2 g-tensors
   Willem Van den Heuvel  : Paramagnetic NMR
   Zikuan Wang            : NOTCH, Electric field optimization 
   Frank Wennmohs         : Technical directorship and infrastructure
   Hang Xu                : AUTO-CI-Response properties 


 We gratefully acknowledge several colleagues who have allowed us to
 interface, adapt or use parts of their codes:
   Stefan Grimme, W. Hujo, H. Kruse, P. Pracht,  : VdW corrections, initial TS optimization,
                  C. Bannwarth, S. Ehlert,         DFT functionals, gCP, sTDA/sTD-DF
                  L. Wittmann, M. Mueller
   Ed Valeev, F. Pavosevic, A. Kumar             : LibInt (2-el integral package), F12 methods
   Garnet Chan, S. Sharma, J. Yang, R. Olivares  : DMRG
   Ulf Ekstrom                                   : XCFun DFT Library
   Mihaly Kallay                                 : mrcc  (arbitrary order and MRCC methods)
   Frank Weinhold                                : gennbo (NPA and NBO analysis)
   Simon Mueller                                 : openCOSMO-RS
   Christopher J. Cramer and Donald G. Truhlar   : smd solvation model
   Lars Goerigk                                  : TD-DFT with DH, B97 family of functionals
   V. Asgeirsson, H. Jonsson                     : NEB implementation
   FAccTs GmbH                                   : IRC, NEB, NEB-TS, DLPNO-Multilevel, CI-OPT
                                                   MM, QMMM, 2- and 3-layer-ONIOM, Crystal-QMMM,
                                                   LR-CPCM, SF, NACMEs, symmetry and pop. for TD-DFT,
                                                   nearIR, NL-DFT gradient (VV10), updates on ESD,
                                                   ML-optimized integration grids, MBIS, APM,
                                                   GOAT, DOCKER, SOLVATOR, interface openCOSMO-RS
   S Lehtola, MJT Oliveira, MAL Marques          : LibXC Library
   Liviu Ungur et al                             : ANISO software


 Your calculation uses the libint2 library for the computation of 2-el integrals
 For citations please refer to: http://libint.valeyev.net

 Your ORCA version has been built with support for libXC version: 6.2.2
 For citations please refer to: https://libxc.gitlab.io

 This ORCA versions uses:
   CBLAS   interface :  Fast vector & matrix operations
   LAPACKE interface :  Fast linear algebra routines
   SCALAPACK package :  Parallel linear algebra routines
   Shared memory     :  Shared parallel matrices
   BLAS/LAPACK       :  OpenBLAS 0.3.27  USE64BITINT DYNAMIC_ARCH NO_AFFINITY SkylakeX SINGLE_THREADED
        Core in use  :  SkylakeX
   Copyright (c) 2011-2014, The OpenBLAS Project




***************************************
The coordinates will be read from file: xtb_opt.xyz
***************************************


Your calculation utilizes the geometrical counterpoise correction gCP
Please cite in your paper:
H.Kruse, S. Grimme J.Chem.Phys., 136, (2012), 154101 
   

Your calculation utilizes the atom-pairwise dispersion correction
based on EEQ partial charges (D4)


Your calculation utilizes the SMD solvation module
Please cite in your paper:
A.V. Marenich, C.J. Cramer, D.G. Truhlar J. Phys. Chem. B, 113, (2009), 6378 

================================================================================

----- Orbital basis set information -----
Your calculation utilizes the basis: def2-mTZVPP
   Stefan Grimme, Andreas Hansen, Sebastian Ehlert, and Jan-Michael Mewes 
   J. Chem. Phys. 154, 064103 (2021). DOI: 10.1063/5.0040021

----- AuxJ basis set information -----
Your calculation utilizes the auxiliary basis: def2/J
   F. Weigend, Phys. Chem. Chem. Phys. 8, 1057 (2006).

================================================================================
                                        WARNINGS
                       Please study these warnings very carefully!
================================================================================

WARNING: Old DensityContainer found on disk!
         Will remove this file - 
         If you want to keep old densities, please start your calculation with a different basename. 

Using LibXC functional ID 497 : Re-regularized SCAN exchange by Furness et al
[ 1]  J. W. Furness, A. D. Kaplan, J. Ning, J. P. Perdew, and J. Sun.,  J. Phys. Chem. Lett. 11, 8208-8215 (2020)
[ 2]  J. W. Furness, A. D. Kaplan, J. Ning, J. P. Perdew, and J. Sun.,  J. Phys. Chem. Lett. 11, 9248-9248 (2020)
Using LibXC functional ID 498 : Re-regularized SCAN correlation by Furness et al
[ 1]  J. W. Furness, A. D. Kaplan, J. Ning, J. P. Perdew, and J. Sun.,  J. Phys. Chem. Lett. 11, 8208-8215 (2020)
[ 2]  J. W. Furness, A. D. Kaplan, J. Ning, J. P. Perdew, and J. Sun.,  J. Phys. Chem. Lett. 11, 9248-9248 (2020)
Using LibXC functional ID 497 : Re-regularized SCAN exchange by Furness et al
[ 1]  J. W. Furness, A. D. Kaplan, J. Ning, J. P. Perdew, and J. Sun.,  J. Phys. Chem. Lett. 11, 8208-8215 (2020)
[ 2]  J. W. Furness, A. D. Kaplan, J. Ning, J. P. Perdew, and J. Sun.,  J. Phys. Chem. Lett. 11, 9248-9248 (2020)
Using LibXC functional ID 498 : Re-regularized SCAN correlation by Furness et al
[ 1]  J. W. Furness, A. D. Kaplan, J. Ning, J. P. Perdew, and J. Sun.,  J. Phys. Chem. Lett. 11, 8208-8215 (2020)
[ 2]  J. W. Furness, A. D. Kaplan, J. Ning, J. P. Perdew, and J. Sun.,  J. Phys. Chem. Lett. 11, 9248-9248 (2020)

================================================================================
                                       INPUT FILE
================================================================================
NAME = xtb_opt.inp
|  1> ! r2scan-3c def2/J RI DEFGRID2 scfconv7 ENGRAD tightSCF miniprint
|  2> %cpcm
|  3>     smd true
|  4>     smdsolvent "water"
|  5> end
|  6> * xyzfile 0 1 xtb_opt.xyz
|  7> 
|  8>                          ****END OF INPUT****
================================================================================

                     *******************************
                     * Energy+Gradient Calculation *
                     *******************************

---------------------------------
CARTESIAN COORDINATES (ANGSTROEM)
---------------------------------
  C     -2.160088    1.098888    0.545622
  C     -2.087327   -0.289670   -0.084199
  C     -0.835143   -0.461273   -0.952226
  C      0.413131   -0.418844   -0.112287
  O      0.617479   -1.115475    0.868742
  O      1.290697    0.488101   -0.558402
  C      2.527552    0.607768    0.170469
  H     -2.153910    1.873621   -0.226087
  H     -3.071532    1.213400    1.136825
  H     -1.305954    1.274397    1.207462
  H     -2.966141   -0.465273   -0.710540
  H     -2.083849   -1.056173    0.697111
  H     -0.782574    0.317573   -1.715733
  H     -0.852397   -1.436828   -1.449308
  H      3.097868   -0.322349    0.105537
  H      2.332714    0.845425    1.219229
  H      3.069903    1.420009   -0.309084

----------------------------
CARTESIAN COORDINATES (A.U.)
----------------------------
  NO LB      ZA    FRAG     MASS         X           Y           Z
   0 C     6.0000    0    12.011   -4.081975    2.076597    1.031076
   1 C     6.0000    0    12.011   -3.944476   -0.547397   -0.159112
   2 C     6.0000    0    12.011   -1.578191   -0.871680   -1.799446
   3 C     6.0000    0    12.011    0.780704   -0.791500   -0.212192
   4 O     8.0000    0    15.999    1.166866   -2.107943    1.641685
   5 O     8.0000    0    15.999    2.439064    0.922378   -1.055226
   6 C     6.0000    0    12.011    4.776380    1.148516    0.322139
   7 H     1.0000    0     1.008   -4.070301    3.540630   -0.427242
   8 H     1.0000    0     1.008   -5.804354    2.292994    2.148288
   9 H     1.0000    0     1.008   -2.467895    2.408261    2.281773
  10 H     1.0000    0     1.008   -5.605194   -0.879238   -1.342726
  11 H     1.0000    0     1.008   -3.937903   -1.995878    1.317349
  12 H     1.0000    0     1.008   -1.478850    0.600126   -3.242265
  13 H     1.0000    0     1.008   -1.610797   -2.715211   -2.738795
  14 H     1.0000    0     1.008    5.854123   -0.609151    0.199437
  15 H     1.0000    0     1.008    4.408190    1.597622    2.304009
  16 H     1.0000    0     1.008    5.801275    2.683429   -0.584085

------------------------------------------------------------------------------
                   ___                                                        
                  /   \      - P O W E R E D   B Y -                         
                 /     \                                                     
                 |  |  |   _    _      __       _____    __    __             
                 |  |  |  | |  | |    /  \     |  _  \  |  |  /  |          
                  \  \/   | |  | |   /    \    | | | |  |  | /  /          
                 / \  \   | |__| |  /  /\  \   | |_| |  |  |/  /          
                |  |  |   |  __  | /  /__\  \  |    /   |      \           
                |  |  |   | |  | | |   __   |  |    \   |  |\   \          
                \     /   | |  | | |  |  |  |  | |\  \  |  | \   \       
                 \___/    |_|  |_| |__|  |__|  |_| \__\ |__|  \__/        
                                                                              
                      - O R C A' S   B I G   F R I E N D -                    
                                      &                                       
                       - I N T E G R A L  F E E D E R -                       
                                                                              
 v1 FN, 2020, v2 2021, v3 2022-2024                                           
------------------------------------------------------------------------------


----------------------
SHARK INTEGRAL PACKAGE
----------------------

Number of atoms                             ...     17
Number of basis functions                   ...    193
Number of shells                            ...     95
Maximum angular momentum                    ...      2
Integral batch strategy                     ... SHARK/LIBINT Hybrid
RI-J (if used) integral strategy            ... SPLIT-RIJ (Revised 2003 algorithm where possible)
Printlevel                                  ...      1
Contraction scheme used                     ... SEGMENTED contraction
Prescreening option                         ... SCHWARTZ
   Thresh                                   ... 3.000e-11
   Tcut                                     ... 1.000e-12
   Tpresel                                  ... 1.000e-12 
Coulomb Range Separation                    ... NOT USED
Exchange Range Separation                   ... NOT USED
Multipole approximations                    ... NOT USED
Finite Nucleus Model                        ... NOT USED
CABS basis                                  ... NOT available
Auxiliary Coulomb fitting basis             ... AVAILABLE
   # of basis functions in Aux-J            ...    453
   # of shells in Aux-J                     ...    155
   Maximum angular momentum in Aux-J        ...      4
Auxiliary J/K fitting basis                 ... NOT available
Auxiliary Correlation fitting basis         ... NOT available
Auxiliary 'external' fitting basis          ... NOT available

Checking pre-screening integrals            ... done (  0.0 sec) Dimension = 95
Check shell pair data                       ... done (  0.0 sec)
Shell pair information
Shell pair cut-off parameter TPreSel        ...   1.0e-12
Total number of shell pairs                 ...      4560
Shell pairs after pre-screening             ...      4170
Total number of primitive shell pairs       ...     16115
Primitive shell pairs kept                  ...     10717
          la=0 lb=0:   1383 shell pairs
          la=1 lb=0:   1554 shell pairs
          la=1 lb=1:    457 shell pairs
          la=2 lb=0:    465 shell pairs
          la=2 lb=1:    266 shell pairs
          la=2 lb=2:     45 shell pairs

Calculating one electron integrals          ... done (  0.0 sec)
Calculating RI/J V-Matrix + Cholesky decomp.... done (  0.1 sec)
Calculating Nuclear repulsion               ... done (  0.0 sec) ENN=    318.181836021301 Eh

Diagonalization of the overlap matrix:
Smallest eigenvalue                        ... 2.006e-04
Time for diagonalization                   ...    0.004 sec
Threshold for overlap eigenvalues          ... 1.000e-07
Number of eigenvalues below threshold      ... 0
Time for construction of square roots      ...    0.019 sec
Total time needed                          ...    0.031 sec

-------------------
DFT GRID GENERATION
-------------------

General Integration Accuracy     IntAcc      ... 4.388
Radial Grid Type                 RadialGrid  ... OptM3 with GC (2021)
Angular Grid (max. ang.)         AngularGrid ... 4 (Lebedev-302)
Angular grid pruning method      GridPruning ... 4 (adaptive)
Weight generation scheme         WeightScheme... mBecke (2022)
Basis function cutoff            BFCut       ... 1.0000e-11
Integration weight cutoff        WCut        ... 1.0000e-14
Partially contracted basis set               ... off
Rotationally invariant grid construction     ... off
Angular grids for H and He will be reduced by one unit
Diffuse basis detected: some atoms will have their outermost
                        angular grid increased by 1.

Total number of grid points                  ...    75080
Total number of batches                      ...     1182
Average number of points per batch           ...       63
Average number of grid points per atom       ...     4416
Initializing property integral containers    ... done (  0.0 sec)

SHARK setup successfully completed in   1.2 seconds

Maximum memory used throughout the entire STARTUP-calculation: 33.8 MB
Occupation numbers will be reassigned to an Aufbau configuration
             **** ENERGY FILE WAS UPDATED (xtb_opt.en.tmp) ****
Finished Guess after   0.4 sec
Maximum memory used throughout the entire GUESS-calculation: 13.1 MB
--------------------
CPCM SOLVATION MODEL
--------------------
CPCM parameters:
  Epsilon                                         ...      78.3550
  Refrac                                          ...       1.3328
  Rsolv                                           ...       1.3000
  Surface type                                    ... GAUSSIAN VDW
  Discretization scheme                           ... Constant charge density
    Threshold for H atoms                         ...       5.0000 (charges/Ang^2)
    Threshold for non-H atoms                     ...       5.0000 (charges/Ang^2)
  Epsilon function type                           ...         CPCM
Solvent:                                          ... WATER
SMD-CDS solvent descriptors:
  Soln                                            ...       1.3328
  Soln25                                          ...       1.3323
  Sola                                            ...       0.0000
  Solb                                            ...       0.0000
  Solg                                            ...       0.0000
  Solc                                            ...       0.0000
  Solh                                            ...       0.0000
Radii:
  Scheme                                          ... Element-dependent radii
  Radius for C  used is    3.4960 Bohr (=   1.8500 Ang.)
  Radius for O  used is    2.8724 Bohr (=   1.5200 Ang.)
  Radius for H  used is    2.2677 Bohr (=   1.2000 Ang.)
Calculating surface                               ...        done! (  0.0s)
Cavity surface points                             ...         1301
Cavity Volume                                     ...     762.1298
Cavity Surface-area                               ...     515.5516
Calculating surface distance matrix               ...        done! (  0.0s)
Performing Cholesky decomposition & store         ...        done! (  0.1s)
Overall time for CPCM initialization              ...                 0.1s

----------------------------------------D-I-I-S--------------------------------------------
Iteration    Energy (Eh)           Delta-E    RMSDP     MaxDP     DIISErr   Damp  Time(sec)
-------------------------------------------------------------------------------------------
               ***  Starting incremental Fock matrix formation  ***
    1    -346.9524551480172931     0.00e+00  6.63e-05  1.06e-03  4.39e-03  0.700   3.1
    2    -346.9525434549622105    -8.83e-05  5.89e-05  9.57e-04  3.35e-03  0.700   2.6
                               ***Turning on AO-DIIS***
                              *** Initializing SOSCF ***
---------------------------------------S-O-S-C-F--------------------------------------
Iteration    Energy (Eh)           Delta-E    RMSDP     MaxDP     MaxGrad    Time(sec)
--------------------------------------------------------------------------------------
    3    -346.9526069995571333    -6.35e-05  1.50e-04  2.68e-03  2.46e-03     2.6
               *** Restarting incremental Fock matrix formation ***
    4    -346.9527530309101166    -1.46e-04  2.89e-05  6.50e-04  1.61e-04     2.9
    5    -346.9527512816139279     1.75e-06  1.79e-05  4.67e-04  3.21e-04     2.4
    6    -346.9527545003057867    -3.22e-06  8.73e-06  1.79e-04  9.94e-05     2.4
    7    -346.9527542651950398     2.35e-07  5.67e-06  1.33e-04  1.51e-04     2.4
    8    -346.9527546213221285    -3.56e-07  2.17e-06  4.94e-05  2.53e-05     2.4
    9    -346.9527546014320478     1.99e-08  1.39e-06  3.11e-05  4.11e-05     2.3
                 **** Energy Check signals convergence ****

               *****************************************************
               *                     SUCCESS                       *
               *           SCF CONVERGED AFTER   9 CYCLES          *
               *****************************************************


SMD CDS free energy correction energy :                 4.91030     Kcal/mol
Total Energy after SMD CDS correction =              -346.944929547 Eh
             **** ENERGY FILE WAS UPDATED (xtb_opt.en.tmp) ****

----------------
TOTAL SCF ENERGY
----------------

Total Energy       :       -346.94492954674899 Eh           -9440.85150 eV

Components:
Nuclear Repulsion  :        318.18183602130125 Eh            8658.16793 eV
Electronic Energy  :       -665.11852337661776 Eh          -18098.79515 eV
One Electron Energy:      -1101.92680143705661 Eh          -29984.95267 eV
Two Electron Energy:        436.80827806043885 Eh           11886.15753 eV
CPCM Dielectric    :         -0.01606724611558 Eh              -0.43721 eV
SMD CDS (Gcds)     :          0.00782505468304 Eh               0.21293 eV

Virial components:
Potential Energy   :       -692.34380008487142 Eh          -18839.63259 eV
Kinetic Energy     :        345.39887053812242 Eh            9398.78109 eV
Virial Ratio       :          2.00447615536848

DFT components:
N(Alpha)           :       27.999982468550 electrons
N(Beta)            :       27.999982468550 electrons
N(Total)           :       55.999964937100 electrons
E(X)               :      -46.129685502732 Eh       
E(C)               :       -1.786822315811 Eh       
E(XC)              :      -47.916507818543 Eh       

CPCM Solvation Model Properties:
Surface-charge          :         -0.04328936723452
Corrected charge        :         -0.00000000000000
Outlying charge corr.   :          0.00015061919650 Eh               0.00410 eV
Free-energy (cav+disp)  :          0.00782505468304 Eh               0.21293 eV

---------------
SCF CONVERGENCE
---------------

  Last Energy change         ...   -1.9890e-08  Tolerance :   1.0000e-07
  Last MAX-Density change    ...    3.1117e-05  Tolerance :   1.0000e-07
  Last RMS-Density change    ...    1.3879e-06  Tolerance :   5.0000e-09
  Last DIIS Error            ...    2.4645e-03  Tolerance :   1.0000e-07
  Last Orbital Gradient      ...    4.1134e-05  Tolerance :   1.0000e-04
  Last Orbital Rotation      ...    4.3019e-05  Tolerance :   1.0000e-04


----------------
ORBITAL ENERGIES
----------------

  NO   OCC          E(Eh)            E(eV) 
   0   2.0000     -19.006315      -517.1881 
   1   2.0000     -18.945696      -515.5386 
   2   2.0000     -10.164779      -276.5977 
   3   2.0000     -10.077730      -274.2290 
   4   2.0000     -10.037627      -273.1377 
   5   2.0000     -10.030045      -272.9314 
   6   2.0000     -10.014244      -272.5014 
   7   2.0000      -1.075547       -29.2671 
   8   2.0000      -0.986584       -26.8463 
   9   2.0000      -0.766333       -20.8530 
  10   2.0000      -0.703887       -19.1537 
  11   2.0000      -0.653538       -17.7837 
  12   2.0000      -0.569080       -15.4854 
  13   2.0000      -0.524624       -14.2758 
  14   2.0000      -0.472555       -12.8589 
  15   2.0000      -0.458177       -12.4676 
  16   2.0000      -0.449361       -12.2277 
  17   2.0000      -0.413610       -11.2549 
  18   2.0000      -0.409700       -11.1485 
  19   2.0000      -0.370702       -10.0873 
  20   2.0000      -0.364543        -9.9197 
  21   2.0000      -0.357284        -9.7222 
  22   2.0000      -0.328738        -8.9454 
  23   2.0000      -0.307278        -8.3615 
  24   2.0000      -0.306511        -8.3406 
  25   2.0000      -0.302454        -8.2302 
  26   2.0000      -0.282900        -7.6981 
  27   2.0000      -0.254035        -6.9126 
  28   0.0000      -0.027629        -0.7518 
  29   0.0000       0.067957         1.8492 
  30   0.0000       0.095907         2.6098 
  31   0.0000       0.121597         3.3088 
  32   0.0000       0.132837         3.6147 
  33   0.0000       0.144351         3.9280 
  34   0.0000       0.145073         3.9476 
  35   0.0000       0.151275         4.1164 
  36   0.0000       0.170496         4.6394 
  37   0.0000       0.175704         4.7811 
  38   0.0000       0.185184         5.0391 
*Only the first 10 virtual orbitals were printed.
Total SCF time: 0 days 0 hours 0 min 23 sec 
Finished LeanSCF after  24.8 sec

Maximum memory used throughout the entire LEANSCF-calculation: 24.3 MB


-------------------------------------------------------------------------------
                          DFT DISPERSION CORRECTION                            
                                                                               
                                DFTD4 V3.4.0                                   
-------------------------------------------------------------------------------
-------------------------   ----------------
Dispersion correction           -0.004111736
-------------------------   ----------------

------------------   -----------------
gCP correction             0.010499013
------------------   -----------------

-------------------------   --------------------
FINAL SINGLE POINT ENERGY      -346.938542269682
-------------------------   --------------------

------------------------------------------------------------------------------
                         ORCA SCF GRADIENT CALCULATION
------------------------------------------------------------------------------

Nuc. rep. gradient        (SHARK) ... done (  0.0 sec)
HCore & Overlap gradient  (SHARK) ... done (  0.3 sec)
Split-RIJ-J gradient      (SHARK) ... done (  1.4 sec)
XC gradient                       ... done (  5.8 sec)
CPCM gradient                     ... done (  0.8 sec)
SMD gradient                      ... done (  0.0 sec)
Dispersion correction             ... done (  0.0 sec)

-------------------
DISPERSION GRADIENT
-------------------

   1   C   :   -0.000071672    0.000044635    0.000023465
   2   C   :   -0.000061893   -0.000013771   -0.000003583
   3   C   :   -0.000032783   -0.000026032   -0.000042067
   4   C   :    0.000038650   -0.000022053   -0.000005818
[...]
N(Beta)            :       27.999991474103 electrons
N(Total)           :       55.999982948205 electrons
E(X)               :      -46.117439886951 Eh       
E(C)               :       -1.786181685494 Eh       
E(XC)              :      -47.903621572444 Eh       

CPCM Solvation Model Properties:
Surface-charge          :         -0.04328188781348
Corrected charge        :          0.00000000000000
Outlying charge corr.   :          0.00015051624030 Eh               0.00410 eV
Free-energy (cav+disp)  :          0.00775136404222 Eh               0.21093 eV

---------------
SCF CONVERGENCE
---------------

  Last Energy change         ...   -1.6274e-09  Tolerance :   1.0000e-07
  Last MAX-Density change    ...    5.9886e-05  Tolerance :   1.0000e-07
  Last RMS-Density change    ...    1.9946e-06  Tolerance :   5.0000e-09
  Last DIIS Error            ...    4.5020e-05  Tolerance :   1.0000e-07
  Last Orbital Gradient      ...    2.3260e-05  Tolerance :   1.0000e-04
  Last Orbital Rotation      ...    9.1454e-05  Tolerance :   1.0000e-04


----------------
ORBITAL ENERGIES
----------------

  NO   OCC          E(Eh)            E(eV) 
   0   2.0000     -19.006024      -517.1802 
   1   2.0000     -18.946270      -515.5542 
   2   2.0000     -10.165129      -276.6072 
   3   2.0000     -10.078057      -274.2379 
   4   2.0000     -10.038340      -273.1571 
   5   2.0000     -10.030648      -272.9478 
   6   2.0000     -10.014865      -272.5183 
   7   2.0000      -1.071712       -29.1628 
   8   2.0000      -0.985318       -26.8119 
   9   2.0000      -0.765867       -20.8403 
  10   2.0000      -0.701636       -19.0925 
  11   2.0000      -0.653351       -17.7786 
  12   2.0000      -0.569598       -15.4996 
  13   2.0000      -0.522854       -14.2276 
  14   2.0000      -0.472294       -12.8518 
  15   2.0000      -0.456711       -12.4277 
  16   2.0000      -0.447791       -12.1850 
  17   2.0000      -0.413847       -11.2614 
  18   2.0000      -0.408831       -11.1249 
  19   2.0000      -0.371030       -10.0962 
  20   2.0000      -0.364467        -9.9176 
  21   2.0000      -0.356286        -9.6950 
  22   2.0000      -0.329387        -8.9631 
  23   2.0000      -0.308199        -8.3865 
  24   2.0000      -0.306927        -8.3519 
  25   2.0000      -0.301675        -8.2090 
  26   2.0000      -0.283092        -7.7033 
  27   2.0000      -0.254208        -6.9174 
  28   0.0000      -0.028725        -0.7816 
  29   0.0000       0.066350         1.8055 
  30   0.0000       0.093939         2.5562 
  31   0.0000       0.121140         3.2964 
  32   0.0000       0.132981         3.6186 
  33   0.0000       0.143966         3.9175 
  34   0.0000       0.147982         4.0268 
  35   0.0000       0.149064         4.0562 
  36   0.0000       0.170305         4.6342 
  37   0.0000       0.174449         4.7470 
  38   0.0000       0.186009         5.0616 
*Only the first 10 virtual orbitals were printed.
Total SCF time: 0 days 0 hours 0 min 6 sec 
Finished LeanSCF after   6.9 sec

Maximum memory used throughout the entire LEANSCF-calculation: 24.1 MB


-------------------------------------------------------------------------------
                          DFT DISPERSION CORRECTION                            
                                                                               
                                DFTD4 V3.4.0                                   
-------------------------------------------------------------------------------
-------------------------   ----------------
Dispersion correction           -0.004109400
-------------------------   ----------------

------------------   -----------------
gCP correction             0.010435684
------------------   -----------------

-------------------------   --------------------
FINAL SINGLE POINT ENERGY      -346.938829831707
-------------------------   --------------------

------------------------------------------------------------------------------
                         ORCA SCF GRADIENT CALCULATION
------------------------------------------------------------------------------

Nuc. rep. gradient        (SHARK) ... done (  0.0 sec)
HCore & Overlap gradient  (SHARK) ... done (  0.2 sec)
Split-RIJ-J gradient      (SHARK) ... done (  1.4 sec)
XC gradient                       ... done (  5.9 sec)
CPCM gradient                     ... done (  0.8 sec)
SMD gradient                      ... done (  0.0 sec)
Dispersion correction             ... done (  0.0 sec)

-------------------
DISPERSION GRADIENT
-------------------

   1   C   :   -0.000071433    0.000043869    0.000024569
   2   C   :   -0.000061919   -0.000013980   -0.000004130
   3   C   :   -0.000032763   -0.000026498   -0.000042429
   4   C   :    0.000038417   -0.000021190   -0.000006065
   5   O   :    0.000039786   -0.000053493    0.000035824
   6   O   :    0.000072022    0.000010268   -0.000017244
   7   C   :    0.000084627    0.000014599    0.000011842
   8   H   :   -0.000031407    0.000026405    0.000004061
   9   H   :   -0.000028103    0.000017310    0.000015481
  10   H   :   -0.000031206    0.000018744    0.000018823
  11   H   :   -0.000027405   -0.000003835   -0.000006524
  12   H   :   -0.000021607   -0.000010673    0.000006146
  13   H   :   -0.000009593   -0.000002155   -0.000027717
  14   H   :   -0.000007776   -0.000024377   -0.000021186
  15   H   :    0.000025704    0.000004986    0.000002883
  16   H   :    0.000034792    0.000007759    0.000006669
  17   H   :    0.000027864    0.000012261   -0.000001003

Difference to translation invariance:
           :   -0.0000000000    0.0000000000   -0.0000000000

Difference to rotation invariance:
           :   -0.0000000000   -0.0000000000    0.0000000000

Norm of the Dispersion gradient    ...    0.0002169983
RMS gradient                       ...    0.0000303858
MAX gradient                       ...    0.0000846273
gCP correction                   ... done

------------------
CARTESIAN GRADIENT
------------------

   1   C   :   -0.000019772    0.000055514   -0.000017530
   2   C   :   -0.000047650   -0.000019868   -0.000011234
   3   C   :    0.000041520   -0.000074718   -0.000117564
   4   C   :    0.000101649    0.000265886   -0.000202259
   5   O   :    0.000022952   -0.000117998    0.000133925
   6   O   :    0.000035527   -0.000111168    0.000284765
   7   C   :   -0.000293230    0.000009802   -0.000249973
   8   H   :   -0.000019596    0.000001826    0.000015571
   9   H   :    0.000013262   -0.000005566    0.000043999
  10   H   :    0.000052167    0.000003195   -0.000022637
  11   H   :    0.000034490    0.000035995   -0.000000998
  12   H   :   -0.000024618    0.000021194   -0.000030735
  13   H   :    0.000050727   -0.000066823   -0.000006396
  14   H   :   -0.000021300   -0.000025892    0.000065353
  15   H   :    0.000025682    0.000066291    0.000018740
  16   H   :    0.000077586   -0.000009326    0.000030074
  17   H   :   -0.000029396   -0.000028344    0.000066899

Difference to translation invariance:
           :    0.0000000000    0.0000000000    0.0000000000

Difference to rotation invariance:
           :   -0.0002182577   -0.0002415905    0.0001059333

Norm of the Cartesian gradient     ...    0.0006832547
RMS gradient                       ...    0.0000956748
MAX gradient                       ...    0.0002932302

-------
TIMINGS
-------

Total SCF gradient time     ....        9.013 sec

Densities                   ....       0.001 sec  (  0.0%)
One electron gradient       ....       0.250 sec  (  2.8%)
RI-J Coulomb gradient       ....       1.397 sec  ( 15.5%)
XC gradient                 ....       5.853 sec  ( 64.9%)
CPCM gradient               ....       0.770 sec  (  8.5%)
   A-Matrix (El+Nuc)        ....       0.062 sec  (  0.7%)
   Potential                ....       0.708 sec  (  7.9%)
SMD gradient                ....       0.016 sec  (  0.2%)

Maximum memory used throughout the entire SCFGRAD-calculation: 33.3 MB

------------------------------------------------------------------------------
                              ORCA PROPERTY CALCULATIONS
------------------------------------------------------------------------------

GBWName                                 ... xtb_opt.gbw
Number of atoms                         ...     17
Number of basis functions               ...    193
Max core memory                         ...   1024 MB

Electric properties:
Dipole moment                           ... YES
Quadrupole moment                       ...  NO
Static polarizability (Dipole/Dipole)   ...  NO
Static polarizability (Dipole/Quad.)    ...  NO
Static polarizability (Quad./Quad.)     ...  NO
Static polarizability (Velocity)        ...  NO

Atomic electric properties:
Dipole moment                           ...  NO
Quadrupole moment                       ...  NO
Static polarizability                   ...  NO

Choice of electric origin               ... Center of mass
Position of electric origin             ...     0.001461     0.020729    -0.008737

General magnetic properties:
Magnetizability                         ...  NO

EPR properties:
g-Tensor (aka g-matrix)                 ...  NO
Zero-Field splitting spin-orbit         ...  NO
Zero-field splitting spin-spin          ...  NO
Hyperfine couplings                     ...  NO (   0 nuclei)
Quadrupole couplings                    ...  NO (   0 nuclei)
Contact density                         ...  NO (   0 nuclei)

NMR properties:
Chemical shifts                         ...  NO (   0 nuclei)
Spin-rotation constants                 ...  NO (   0 nuclei)
Spin-spin couplings                     ...  NO (   0 nuclei,    0 pairs)

Choice of magnetic origin               ... GIAO
Position of magnetic origin             ...     0.000000     0.000000     0.000000

Properties with geometric perturbations:
SCF Hessian                             ...  NO
IR spectrum                             ...  NO
VCD spectrum                            ...  NO
X-ray spectroscopy properties:
SCF XES/XAS/RIXS spectra                ...  NO


-------------
DIPOLE MOMENT
-------------

Method             : SCF
Type of density    : Electron Density
Multiplicity       :   1
Irrep              :   0
Energy             :  -346.9451561155813124 Eh
Relativity type    : 
Basis              : AO
                                X                 Y                 Z
Electronic contribution:      4.449546037      -2.578086374      -0.778852964
Nuclear contribution   :     -4.405699288       3.259320368       0.018968449
                        -----------------------------------------
Total Dipole Moment    :      0.043846749       0.681233994      -0.759884515
                        -----------------------------------------
Magnitude (a.u.)       :      1.021482632
Magnitude (Debye)      :      2.596402512



--------------------
Rotational spectrum 
--------------------
 
Rotational constants in cm-1:             0.163359             0.051270             0.049014 
Rotational constants in MHz :          4897.393206          1537.048332          1469.413600 

Dipole components along the rotational axes: 
x,y,z [a.u.] :     0.050312    -0.709714    -0.732941 
x,y,z [Debye]:     0.127884    -1.803948    -1.862987 

 

Dipole moment calculation done in   0.0 sec 

Maximum memory used throughout the entire PROP-calculation: 11.7 MB

--------------------------------
SUGGESTED CITATIONS FOR THIS RUN
--------------------------------

Below you find a list of papers that are relevant to this ORCA run
We neither can nor want to force you to cite these papers, but we appreciate if you do
You receive ORCA, which is the product of decades of hard work by many enthusiastic individuals, for free
The only thing we kindly ask in return is that you cite our papers,
We deeply appreciate it, if you show your appreciation for ORCA by not just citing the generic ORCA reference.

Please note that relegating all ORCA citations to the supporting information does *not* help us.
SI sections are not indexed - citations you put there will not count into any citation statistics
But we need these citations in order to attract the funding resources that allow us to do what we are doing

Therefore, if you are a happy ORCA user, please consider citing a few of the papers listed below in the main body of your paper

In addition to the list printed below, the program has created the file xtb_opt.bibtex that contains the list in bibtex format
You can import this file easily into all common literature databanks and citation aid programs


List of essential papers. We consider these as the minimum necessary citations

  1. Neese,F.
     Software update: the ORCA program system, version 5.0
     WIRES Comput. Molec. Sci., 2022 12(1)e1606
     doi.org/10.1002/wcms.1606
  2. Grimme,S.; Hansen,A.; Ehlert,S.; Mewes,J.
     r2SCAN-3c: A 'Swiss army knife' composite electronic-structure method
     J. Chem. Phys., 2021 154 064103
     doi.org/10.1063/5.0040021

List of papers to cite with high priority. The work reported in these papers was absolutely
necessary for this run to complete.
Our perspective: the developers of density functionals and basis sets usually get cited in chemistry papers
Good! But without the algorithms to do something with them, the functionals or basis sets would not do anything.
Hence, in our opinion, the algorithm design and method developments papers are equally worthy of getting cited

  1. Neese,F.
     An improvement of the resolution of the identity approximation for the formation of the Coulomb matrix
     J. Comp. Chem., 2003 24(14)1740-1747
     doi.org/10.1002/jcc.10318
  2. Garcia-Rates,M.; Neese,F.
     Effect of the Solute Cavity on the Solvation Energy and its Derivatives within the Framework of the Gaussian Charge Scheme
     J. Comput. Chem., 2020 41 922-939
     doi.org/10.1002/jcc.26139
  3. Neese,F.
     The SHARK Integral Generation and Digestion System
     J. Comp. Chem., 2022  1-16
     doi.org/10.1002/jcc.26942
  4. Lehtola,S.; Steigemann,C.; Oliveira,M.; Marques,M.
     Recent developments in Libxc - A comprehensive library of functionals for density functional theory
     Software X, 2018 7 
     doi.org/10.1016/j.softx.2017.11.002
  5. Caldeweyher,E.; Bannwarth,C.; Grimme,S.
     Extension of the D3 dispersion coefficient model
     J. Chem. Phys., 2017 147 034112-XXXX
     doi.org/10.1063/1.4993215
  6. Caldeweyher,E.; Ehlert,S.; Hansen,A.; Neugebauer,H.; Spicher,S.; Bannwarth,C.; Grimme,S.
     A generally applicable atomic-charge dependent London dispersion correction
     J. Chem. Phys., 2019 150 154122-XXXX
     doi.org/10.1063/1.5090222
  7. Caldeweyher,E.; Mewes,J.; Ehlert,S.; Grimme,S.
     Extension and evaluation of the D4 London-dispersion model for periodic systems
     Phys. Chem. Chem. Phys., 2020 22(16)8499-8512
     doi.org/10.1039/D0CP00502A

List of suggested additional citations. These are papers that are important in the 'surrounding' of 
of this run, or papers that preceded the highly important papers. If you like your results we are grateful for a citation.

  1. Neese,F.
     The ORCA program system
     WIRES Comput. Molec. Sci., 2012 2(1)73-78
     doi.org/10.1002/wcms.81
  2. Neese,F.
     Software update: the ORCA program system, version 4.0
     WIRES Comput. Molec. Sci., 2018 8(1)1-6
     doi.org/10.1002/wcms.1327
  3. Neese,F.; Wennmohs,F.; Becker,U.; Riplinger,C.
     The ORCA quantum chemistry program package
     J. Chem. Phys., 2020 152 Art. No. L224108
     doi.org/10.1063/5.0004608

List of optional additional citations

  1. Neese,F.
     Approximate second-order SCF convergence for spin unrestricted wavefunctions
     Chem. Phys. Lett., 2000 325(1-3)93-98
     doi.org/10.1016/s0009-2614(00)00662-x

Timings for individual modules:

Sum of individual times          ...       17.940 sec (=   0.299 min)
Startup calculation              ...        1.220 sec (=   0.020 min)   6.8 %
SCF iterations                   ...        7.375 sec (=   0.123 min)  41.1 %
Property calculations            ...        0.162 sec (=   0.003 min)   0.9 %
SCF Gradient evaluation          ...        9.183 sec (=   0.153 min)  51.2 %
                             ****ORCA TERMINATED NORMALLY****
TOTAL RUN TIME: 0 days 0 hours 0 minutes 18 seconds 952 msec
  ------------------------------------------------------------------------
          * successful ORCA run, taking over control again...

         :::::::::::::::::::::::::::::::::::::::::::::::::::::
         ::                  ORCA SUMMARY                   ::
         :::::::::::::::::::::::::::::::::::::::::::::::::::::
         :: total energy            -346.938829831707 Eh    ::
         :: gradient norm              0.000683254703 Eh/a0 ::
         :: HOMO-LUMO gap              0.000000000000 eV    ::
         :::::::::::::::::::::::::::::::::::::::::::::::::::::

           -------------------------------------------------
          |                Property Printout                |
           -------------------------------------------------
           -------------------------------------------------
          |                Geometry Summary                 |
           -------------------------------------------------

      molecular mass/u    :      102.1318968
   center of mass at/Å    :        0.0007891       0.0109638      -0.0046212
  moments of inertia/u·Å² :        0.1031924E+03   0.3287914E+03   0.3439255E+03
rotational constants/cm⁻¹ :        0.1633612E+00   0.5127151E-01   0.4901537E-01

 * 14 selected distances

     #   Z          #   Z                                           value/Å
     1   6 C        2   6 C                                       1.5254900
     2   6 C        3   6 C                                       1.5339871 (max)
     4   6 C        5   8 O                                       1.2206761
     4   6 C        6   8 O                                       1.3475301
     1   6 C        8   1 H                                       1.0954042
     1   6 C        9   1 H                                       1.0942306
     1   6 C       10   1 H                                       1.0966280
     2   6 C       11   1 H                                       1.0948581
     2   6 C       12   1 H                                       1.0953433
     3   6 C       13   1 H                                       1.0927613
     3   6 C       14   1 H                                       1.0968264
     7   6 C       15   1 H                                       1.0924830
     7   6 C       16   1 H                                       1.0925310
     7   6 C       17   1 H                                       1.0892019 (min)

 * 3 distinct bonds (by element types)

   Z      Z             #   av. dist./Å        max./Å        min./Å
   1 H    6 C          10     1.0940268     1.0968264     1.0892019
   6 C    6 C           2     1.5297386     1.5339871     1.5254900
   6 C    8 O           2     1.2841031     1.3475301     1.2206761


optimized geometry written to: xtbopt.coord


           -------------------------------------------------
          | TOTAL ENERGY             -346.938829831707 Eh   |
          | GRADIENT NORM               0.000683254703 Eh/α |
           -------------------------------------------------

------------------------------------------------------------------------
 * finished run on 2025/04/11 at 11:56:48.714     
------------------------------------------------------------------------
 total:
 * wall-time:     0 d,  0 h,  4 min, 43.799 sec
 *  cpu-time:     0 d,  0 h,  0 min,  1.893 sec
 * ratio c/w:     0.007 speedup
 SCF:
 * wall-time:     0 d,  0 h,  0 min, 24.033 sec
 *  cpu-time:     0 d,  0 h,  0 min,  0.529 sec
 * ratio c/w:     0.022 speedup
 ANC optimizer:
 * wall-time:     0 d,  0 h,  4 min, 19.681 sec
 *  cpu-time:     0 d,  0 h,  0 min,  1.212 sec
 * ratio c/w:     0.005 speedup

