20
 energy: -386.244809661734 gnorm: 0.001386449302 xtb: 6.7.1 (edcfbbe)
C           -1.51579284548159        0.41314806060350        1.24631091568929
C           -1.64228849611645       -0.58332496793486        0.09544802888785
C           -2.97740286395742       -0.41723051022796       -0.63177345479626
C           -0.52039862738656       -0.42611618164578       -0.92056644644262
O            0.77112567565050       -0.72461379401465       -0.30852703788906
C            1.58369208156002        0.29714295897886        0.02121990841941
O            1.33240930365205        1.47014310513358       -0.20317458574605
C            2.82034721329578       -0.17701630076810        0.71624419352738
H           -1.58974524895372        1.44222844020309        0.87601807136564
H           -0.56297359334407        0.30701214068976        1.77534795151166
H           -2.31737796564729        0.25625807460634        1.97498325375571
H           -1.58588152320835       -1.60286638061529        0.49964885583036
H           -3.08589628130593       -1.14302746524768       -1.44448180546378
H           -3.06157329640946        0.58878609378807       -1.05907908909260
H           -3.81093684728963       -0.55820347814507        0.06297328381777
H           -0.62050730578837       -1.15616066364619       -1.72778982321504
H           -0.50109637002750        0.58300305190463       -1.34138369351805
H            2.98970633322465       -1.24398429258519        0.57220925474902
H            2.70170176054457        0.02207778950751        1.78722186323709
H            3.67673159536197        0.40042841230886        0.36278234317769
20
 energy: -386.244813119645 gnorm: 0.000754820434 xtb: 6.7.1 (edcfbbe)
C           -1.51556264560640        0.41288439287805        1.24672726956266
C           -1.64247346143801       -0.58312127932551        0.09562073283617
C           -2.97759267183849       -0.41725835658392       -0.63173152515400
C           -0.52111341310494       -0.42603320343088       -0.92070516044116
O            0.77072841731099       -0.72541669220413       -0.30825729827351
C            1.58339179259648        0.29724096786136        0.02206882333987
O            1.33320664556388        1.47021840166411       -0.20515737952457
C            2.82062958721365       -0.17663379180071        0.71577099555844
H           -1.58601411955171        1.44225702399803        0.87643609149904
H           -0.56387076533337        0.30400599934194        1.77767767062592
H           -2.31931107873102        0.25826340449709        1.97385748355133
H           -1.58629138497326       -1.60285705899229        0.49954018992101
H           -3.08569703388476       -1.14366366451881       -1.44409153044141
H           -3.06223121748026        0.58839118364055       -1.05988957850726
H           -3.81127036791385       -0.55814523331364        0.06280458691729
H           -0.62125251464566       -1.15590977363168       -1.72823502245244
H           -0.50058180043338        0.58338467224201       -1.34085011855822
H            2.99119887952131       -1.24347754652385        0.57179104986861
H            2.70095730212654        0.02170815533750        1.78676303143648
H            3.67699256854465        0.40184647184925        0.36349172354267
20
 energy: -386.244813119645 gnorm: 0.000754820434 xtb: 6.7.1 (edcfbbe)
C           -1.51556264560640        0.41288439287805        1.24672726956266
C           -1.64247346143801       -0.58312127932551        0.09562073283617
C           -2.97759267183849       -0.41725835658392       -0.63173152515400
C           -0.52111341310494       -0.42603320343088       -0.92070516044116
O            0.77072841731099       -0.72541669220413       -0.30825729827351
C            1.58339179259648        0.29724096786136        0.02206882333987
O            1.33320664556388        1.47021840166411       -0.20515737952457
C            2.82062958721365       -0.17663379180071        0.71577099555844
H           -1.58601411955171        1.44225702399803        0.87643609149904
H           -0.56387076533337        0.30400599934194        1.77767767062592
H           -2.31931107873102        0.25826340449709        1.97385748355133
H           -1.58629138497326       -1.60285705899229        0.49954018992101
H           -3.08569703388476       -1.14366366451881       -1.44409153044141
H           -3.06223121748026        0.58839118364055       -1.05988957850726
H           -3.81127036791385       -0.55814523331364        0.06280458691729
H           -0.62125251464566       -1.15590977363168       -1.72823502245244
H           -0.50058180043338        0.58338467224201       -1.34085011855822
H            2.99119887952131       -1.24347754652385        0.57179104986861
H            2.70095730212654        0.02170815533750        1.78676303143648
H            3.67699256854465        0.40184647184925        0.36349172354267
