
                                 *****************
                                 * O   R   C   A *
                                 *****************

                                            #,                                       
                                            ###                                      
                                            ####                                     
                                            #####                                    
                                            ######                                   
                                           ########,                                 
                                     ,,################,,,,,                         
                               ,,#################################,,                 
                          ,,##########################################,,             
                       ,#########################################, ''#####,          
                    ,#############################################,,   '####,        
                  ,##################################################,,,,####,       
                ,###########''''           ''''###############################       
              ,#####''   ,,,,##########,,,,          '''####'''          '####       
            ,##' ,,,,###########################,,,                        '##       
           ' ,,###''''                  '''############,,,                           
         ,,##''                                '''############,,,,        ,,,,,,###''
      ,#''                                            '''#######################'''  
     '                                                          ''''####''''         
             ,#######,   #######,   ,#######,      ##                                
            ,#'     '#,  ##    ##  ,#'     '#,    #''#        ,####,   ,####,        
            ##       ##  ##   ,#'  ##            #'  '#       #'       #'  '#        
            ##       ##  #######   ##           ,######,      #####,   #    #        
            '#,     ,#'  ##    ##  '#,     ,#' ,#      #,     #,   #   #,  ,#        
             '#######'   ##     ##  '#######'  #'      '#     '####' # '####'        



                #########################################################
                #                        -***-                          #
                #          Department of theory and spectroscopy        #
                #                                                       #
                #                      Frank Neese                      #
                #                                                       #
                #     Directorship, Architecture, Infrastructure        #
                #                    SHARK, DRIVERS                     #
                #        Core code/Algorithms in most modules           #
                #                                                       #
                #        Max Planck Institute fuer Kohlenforschung      #
                #                Kaiser Wilhelm Platz 1                 #
                #                 D-45470 Muelheim/Ruhr                 #
                #                      Germany                          #
                #                                                       #
                #                  All rights reserved                  #
                #                        -***-                          #
                #########################################################


                         Program Version 6.0.0  -   RELEASE  -


 With contributions from (in alphabetic order):
   Daniel Aravena         : Magnetic Suceptibility
   Michael Atanasov       : Ab Initio Ligand Field Theory (pilot matlab implementation)
   Alexander A. Auer      : GIAO ZORA, VPT2 properties, NMR spectrum
   Ute Becker             : All parallelization in ORCA, NUMFREQ, NUMCALC
   Giovanni Bistoni       : ED, misc. LED, open-shell LED, HFLD
   Martin Brehm           : Molecular dynamics
   Dmytro Bykov           : pre 5.0 version of the SCF Hessian
   Marcos Casanova-Páez   : Triplet and SCS-CIS(D). UHF-(DLPNO)-IP/EA/STEOM-CCSD. UHF-CVS-IP/STEOM-CCSD
   Vijay G. Chilkuri      : MRCI spin determinant printing, contributions to CSF-ICE
   Pauline Colinet        : FMM embedding
   Dipayan Datta          : RHF DLPNO-CCSD density
   Achintya Kumar Dutta   : EOM-CC, STEOM-CC
   Nicolas Foglia         : Exact transition moments, OPA infrastructure, MCD improvements
   Dmitry Ganyushin       : Spin-Orbit,Spin-Spin,Magnetic field MRCI
   Miquel Garcia          : C-PCM and meta-GGA Hessian, CCSD/C-PCM, Gaussian charge scheme
   Tiago L. C. Gouveia    : GS-ROHF, GS-ROCIS
   Yang Guo               : DLPNO-NEVPT2, F12-NEVPT2, CIM, IAO-localization
   Andreas Hansen         : Spin unrestricted coupled pair/coupled cluster methods
   Ingolf Harden          : AUTO-CI MPn and infrastructure 
   Benjamin Helmich-Paris : MC-RPA, TRAH-(SCF,CASSCF), AVAS, COSX integrals, SCF dyn. polar.
   Lee Huntington         : MR-EOM, pCC
   Robert Izsak           : Overlap fitted RIJCOSX, COSX-SCS-MP3, EOM
   Riya Kayal             : Wick's Theorem for AUTO-CI, AUTO-CI UHF-CCSDT
   Emily Kempfer          : AUTO-CI, RHF CISDT and CCSDT
   Christian Kollmar      : KDIIS, OOCD, Brueckner-CCSD(T), CCSD density, CASPT2, CASPT2-K, improved NEVPT2
   Axel Koslowski         : Symmetry handling
   Simone Kossmann        : Meta GGA functionals, TD-DFT gradient, OOMP2, (MP2 Hessian; deprecated post 5.0)
   Lucas Lang             : DCDCAS
   Marvin Lechner         : AUTO-CI (C++ implementation), FIC-MRCC
   Spencer Leger          : CASSCF response
   Dagmar Lenk            : GEPOL surface, SMD, ORCA-2-JSON
   Dimitrios Liakos       : Extrapolation schemes; Compound Job, initial MDCI parallelization
   Dimitrios Manganas     : Further ROCIS development; embedding schemes. LFT, Crystal Embedding
   Dimitrios Pantazis     : SARC Basis sets
   Anastasios Papadopoulos: AUTO-CI, single reference methods and gradients
   Taras Petrenko         : pre 6.0 DFT Hessian and TD-DFT gradient, (ASA, deprecated), ECA, 1-Electron XAS/XES, NRVS
   Peter Pinski           : DLPNO-MP2, DLPNO-MP2 Gradient
   Christoph Reimann      : Effective Core Potentials
   Marius Retegan         : Local ZFS, SOC
   Christoph Riplinger    : Optimizer, TS searches, QM/MM, DLPNO-CCSD(T), (RO)-DLPNO pert. Triples
   Michael Roemelt        : Original ROCIS implementation
   Masaaki Saitow         : Open-shell DLPNO-CCSD energy and density
   Barbara Sandhoefer     : DKH picture change effects
   Kantharuban Sivalingam : CASSCF convergence/infrastructure, NEVPT2 and variants, FIC-MRCI
   Bernardo de Souza      : ESD, SOC TD-DFT
   Georgi Stoychev        : AutoAux, RI-MP2 NMR, DLPNO-MP2 response, X2C
   Van Anh Tran           : RI-MP2 g-tensors
   Willem Van den Heuvel  : Paramagnetic NMR
   Zikuan Wang            : NOTCH, Electric field optimization 
   Frank Wennmohs         : Technical directorship and infrastructure
   Hang Xu                : AUTO-CI-Response properties 


 We gratefully acknowledge several colleagues who have allowed us to
 interface, adapt or use parts of their codes:
   Stefan Grimme, W. Hujo, H. Kruse, P. Pracht,  : VdW corrections, initial TS optimization,
                  C. Bannwarth, S. Ehlert,         DFT functionals, gCP, sTDA/sTD-DF
                  L. Wittmann, M. Mueller
   Ed Valeev, F. Pavosevic, A. Kumar             : LibInt (2-el integral package), F12 methods
   Garnet Chan, S. Sharma, J. Yang, R. Olivares  : DMRG
   Ulf Ekstrom                                   : XCFun DFT Library
   Mihaly Kallay                                 : mrcc  (arbitrary order and MRCC methods)
   Frank Weinhold                                : gennbo (NPA and NBO analysis)
   Simon Mueller                                 : openCOSMO-RS
   Christopher J. Cramer and Donald G. Truhlar   : smd solvation model
   Lars Goerigk                                  : TD-DFT with DH, B97 family of functionals
   V. Asgeirsson, H. Jonsson                     : NEB implementation
   FAccTs GmbH                                   : IRC, NEB, NEB-TS, DLPNO-Multilevel, CI-OPT
                                                   MM, QMMM, 2- and 3-layer-ONIOM, Crystal-QMMM,
                                                   LR-CPCM, SF, NACMEs, symmetry and pop. for TD-DFT,
                                                   nearIR, NL-DFT gradient (VV10), updates on ESD,
                                                   ML-optimized integration grids, MBIS, APM,
                                                   GOAT, DOCKER, SOLVATOR, interface openCOSMO-RS
   S Lehtola, MJT Oliveira, MAL Marques          : LibXC Library
   Liviu Ungur et al                             : ANISO software


 Your calculation uses the libint2 library for the computation of 2-el integrals
 For citations please refer to: http://libint.valeyev.net

 Your ORCA version has been built with support for libXC version: 6.2.2
 For citations please refer to: https://libxc.gitlab.io

 This ORCA versions uses:
   CBLAS   interface :  Fast vector & matrix operations
   LAPACKE interface :  Fast linear algebra routines
   SCALAPACK package :  Parallel linear algebra routines
   Shared memory     :  Shared parallel matrices
   BLAS/LAPACK       :  OpenBLAS 0.3.27  USE64BITINT DYNAMIC_ARCH NO_AFFINITY SkylakeX SINGLE_THREADED
        Core in use  :  SkylakeX
   Copyright (c) 2011-2014, The OpenBLAS Project


Your calculation utilizes the geometrical counterpoise correction gCP
Please cite in your paper:
H.Kruse, S. Grimme J.Chem.Phys., 136, (2012), 154101 
   

Your calculation utilizes the atom-pairwise dispersion correction
based on EEQ partial charges (D4)


Your calculation utilizes the SMD solvation module
Please cite in your paper:
A.V. Marenich, C.J. Cramer, D.G. Truhlar J. Phys. Chem. B, 113, (2009), 6378 

================================================================================

----- Orbital basis set information -----
Your calculation utilizes the basis: def2-mTZVPP
   Stefan Grimme, Andreas Hansen, Sebastian Ehlert, and Jan-Michael Mewes 
   J. Chem. Phys. 154, 064103 (2021). DOI: 10.1063/5.0040021

----- AuxJ basis set information -----
Your calculation utilizes the auxiliary basis: def2/J
   F. Weigend, Phys. Chem. Chem. Phys. 8, 1057 (2006).

================================================================================
                                        WARNINGS
                       Please study these warnings very carefully!
================================================================================

Using LibXC functional ID 497 : Re-regularized SCAN exchange by Furness et al
[ 1]  J. W. Furness, A. D. Kaplan, J. Ning, J. P. Perdew, and J. Sun.,  J. Phys. Chem. Lett. 11, 8208-8215 (2020)
[ 2]  J. W. Furness, A. D. Kaplan, J. Ning, J. P. Perdew, and J. Sun.,  J. Phys. Chem. Lett. 11, 9248-9248 (2020)
Using LibXC functional ID 498 : Re-regularized SCAN correlation by Furness et al
[ 1]  J. W. Furness, A. D. Kaplan, J. Ning, J. P. Perdew, and J. Sun.,  J. Phys. Chem. Lett. 11, 8208-8215 (2020)
[ 2]  J. W. Furness, A. D. Kaplan, J. Ning, J. P. Perdew, and J. Sun.,  J. Phys. Chem. Lett. 11, 9248-9248 (2020)
Using LibXC functional ID 497 : Re-regularized SCAN exchange by Furness et al
[ 1]  J. W. Furness, A. D. Kaplan, J. Ning, J. P. Perdew, and J. Sun.,  J. Phys. Chem. Lett. 11, 8208-8215 (2020)
[ 2]  J. W. Furness, A. D. Kaplan, J. Ning, J. P. Perdew, and J. Sun.,  J. Phys. Chem. Lett. 11, 9248-9248 (2020)
Using LibXC functional ID 498 : Re-regularized SCAN correlation by Furness et al
[ 1]  J. W. Furness, A. D. Kaplan, J. Ning, J. P. Perdew, and J. Sun.,  J. Phys. Chem. Lett. 11, 8208-8215 (2020)
[ 2]  J. W. Furness, A. D. Kaplan, J. Ning, J. P. Perdew, and J. Sun.,  J. Phys. Chem. Lett. 11, 9248-9248 (2020)

================================================================================
                                       INPUT FILE
================================================================================
NAME = sp_solv.inp
|  1> ! r2scan-3c def2/J RI DEFGRID2 scfconv6 printgap
|  2> %output
|  3>     printlevel normal
|  4> end
|  5> %cpcm
|  6>     smd true
|  7>     smdsolvent "water"
|  8> end
|  9> * xyz 0 1
| 10> C 2.0576477177 1.2679714388 0.6744784305
| 11> C 1.6365711349 -0.1752611458 0.4208288715
| 12> C 0.3822648922 -0.2986057607 -0.4574120541
| 13> H 0.5386285033 0.332036951 -1.339862608
| 14> C 0.2652916229 -1.7390390241 -0.9581202373
| 15> C -0.87468675 0.2328052289 0.2858063687
| 16> C -1.4283293248 1.4695361594 -0.4243485949
| 17> C -2.0016520286 -0.7849710812 0.4641873036
| 18> H 2.2556485256 1.7747522385 -0.2677043172
| 19> H 1.2837595848 1.8189247665 1.2029496338
| 20> H 2.9639253348 1.2956510433 1.2751074036
| 21> H 1.4589593713 -0.6795136202 1.3737641389
| 22> H 2.461908106 -0.6925047277 -0.0741840739
| 23> H 0.1901787896 -2.4388969911 -0.13006394
| 24> H -0.5992099761 -1.8639960948 -1.6030966207
| 25> H 1.1522952138 -1.9946693838 -1.5344340434
| 26> H -0.5656816677 0.5358050232 1.2919758436
| 27> H -1.7683910328 1.2097045949 -1.4248580977
| 28> H -0.666596568 2.2409681173 -0.508581669
| 29> H -2.2716914467 1.8808018646 0.1265807686
| 30> H -2.7991838292 -0.3360739145 1.0531168214
| 31> H -1.6565667879 -1.6715180451 0.9881210315
| 32> H -2.4201840773 -1.0829933792 -0.493420684
| 33> *
| 34> 
| 35>                          ****END OF INPUT****
================================================================================

                       ****************************
                       * Single Point Calculation *
                       ****************************

---------------------------------
CARTESIAN COORDINATES (ANGSTROEM)
---------------------------------
  C      2.057648    1.267971    0.674478
  C      1.636571   -0.175261    0.420829
  C      0.382265   -0.298606   -0.457412
  H      0.538629    0.332037   -1.339863
  C      0.265292   -1.739039   -0.958120
  C     -0.874687    0.232805    0.285806
  C     -1.428329    1.469536   -0.424349
  C     -2.001652   -0.784971    0.464187
  H      2.255649    1.774752   -0.267704
  H      1.283760    1.818925    1.202950
  H      2.963925    1.295651    1.275107
  H      1.458959   -0.679514    1.373764
  H      2.461908   -0.692505   -0.074184
  H      0.190179   -2.438897   -0.130064
  H     -0.599210   -1.863996   -1.603097
  H      1.152295   -1.994669   -1.534434
  H     -0.565682    0.535805    1.291976
  H     -1.768391    1.209705   -1.424858
  H     -0.666597    2.240968   -0.508582
  H     -2.271691    1.880802    0.126581
  H     -2.799184   -0.336074    1.053117
  H     -1.656567   -1.671518    0.988121
  H     -2.420184   -1.082993   -0.493421

----------------------------
CARTESIAN COORDINATES (A.U.)
----------------------------
  NO LB      ZA    FRAG     MASS         X           Y           Z
   0 C     6.0000    0    12.011    3.888391    2.396119    1.274580
   1 C     6.0000    0    12.011    3.092671   -0.331196    0.795251
   2 C     6.0000    0    12.011    0.722376   -0.564283   -0.864384
   3 H     1.0000    0     1.008    1.017860    0.627459   -2.531973
   4 C     6.0000    0    12.011    0.501329   -3.286307   -1.810585
   5 C     6.0000    0    12.011   -1.652918    0.439938    0.540096
   6 C     6.0000    0    12.011   -2.699151    2.777021   -0.801903
   7 C     6.0000    0    12.011   -3.782574   -1.483380    0.877187
   8 H     1.0000    0     1.008    4.262558    3.353796   -0.505888
   9 H     1.0000    0     1.008    2.425954    3.437270    2.273245
  10 H     1.0000    0     1.008    5.601007    2.448426    2.409604
  11 H     1.0000    0     1.008    2.757034   -1.284095    2.596038
  12 H     1.0000    0     1.008    4.652332   -1.308644   -0.140188
  13 H     1.0000    0     1.008    0.359386   -4.608847   -0.245785
  14 H     1.0000    0     1.008   -1.132343   -3.522442   -3.029414
  15 H     1.0000    0     1.008    2.177522   -3.769379   -2.899660
  16 H     1.0000    0     1.008   -1.068983    1.012525    2.441481
  17 H     1.0000    0     1.008   -3.341775    2.286010   -2.692592
  18 H     1.0000    0     1.008   -1.259685    4.234816   -0.961080
  19 H     1.0000    0     1.008   -4.292875    3.554200    0.239203
  20 H     1.0000    0     1.008   -5.289691   -0.635088    1.990102
  21 H     1.0000    0     1.008   -3.130458   -3.158711    1.867278
  22 H     1.0000    0     1.008   -4.573485   -2.046561   -0.932430

--------------------------------
INTERNAL COORDINATES (ANGSTROEM)
--------------------------------
 C      0   0   0     0.000000000000     0.00000000     0.00000000
 C      1   0   0     1.524652052310     0.00000000     0.00000000
 C      2   1   0     1.536165735818   113.36727260     0.00000000
 H      3   2   1     1.095846151964   107.31742231    49.57771743
 C      3   2   1     1.529457229465   108.97962840   164.89734360
 C      3   2   1     1.553930080372   111.07387627   292.11701995
 C      6   3   2     1.529818148478   110.31459995   115.09555405
 C      6   3   2     1.528966681948   115.11067446   238.93483331
 H      1   2   3     1.087997899326   110.31063044   301.26169343
 H      1   2   3     1.087075997465   111.34738669    61.57153797
 H      1   2   3     1.087593877828   110.24917446   181.64118411
 H      2   1   3     1.092658281606   109.67279293   237.66457899
 H      2   1   3     1.092593179090   108.35348769   120.68616498
 H      5   3   2     1.086793606532   111.24349995    59.65301542
 H      5   3   2     1.085804687472   111.33009059   181.27792082
 H      5   3   2     1.088237039515   109.40638060   300.44672503
 H      6   3   2     1.095294493939   107.80423835   357.68508760
 H      7   6   3     1.088197441805   110.29591150    63.74866018
 H      7   6   3     1.087400234147   110.85215908   303.57418922
 H      7   6   3     1.088081941995   110.54988055   183.46333338
 H      8   6   3     1.088303090217   109.19053117   176.06101331
 H      8   6   3     1.086073613426   111.43571501    56.88057092
 H      8   6   3     1.086737973851   111.32216735   295.11499349

---------------------------
INTERNAL COORDINATES (A.U.)
---------------------------
 C      0   0   0     0.000000000000     0.00000000     0.00000000
 C      1   0   0     2.881174828388     0.00000000     0.00000000
 C      2   1   0     2.902932537009   113.36727260     0.00000000
 H      3   2   1     2.070849112124   107.31742231    49.57771743
 C      3   2   1     2.890255297235   108.97962840   164.89734360
 C      3   2   1     2.936502283166   111.07387627   292.11701995
 C      6   3   2     2.890937335326   110.31459995   115.09555405
 C      6   3   2     2.889328296772   115.11067446   238.93483331
 H      1   2   3     2.056018064007   110.31063044   301.26169343
 H      1   2   3     2.054275921968   111.34738669    61.57153797
 H      1   2   3     2.055254574024   110.24917446   181.64118411
 H      2   1   3     2.064824910196   109.67279293   237.66457899
 H      2   1   3     2.064701884271   108.35348769   120.68616498
 H      5   3   2     2.053742280441   111.24349995    59.65301542
 H      5   3   2     2.051873494249   111.33009059   181.27792082
 H      5   3   2     2.056469973472   109.40638060   300.44672503
 H      6   3   2     2.069806629537   107.80423835   357.68508760
 H      7   6   3     2.056395144646   110.29591150    63.74866018
 H      7   6   3     2.054888640500   110.85215908   303.57418922
 H      7   6   3     2.056176881636   110.54988055   183.46333338
 H      8   6   3     2.056594791210   109.19053117   176.06101331
 H      8   6   3     2.052381690654   111.43571501    56.88057092
 H      8   6   3     2.053637149911   111.32216735   295.11499349

---------------------
BASIS SET INFORMATION
---------------------
There are 2 groups of distinct atoms

 Group   1 Type C   : 11s6p1d contracted to 5s3p1d pattern {62111/411/1}
 Group   2 Type H   : 4s1p contracted to 2s1p pattern {31/1}

Atom   0C    basis set group =>   1
Atom   1C    basis set group =>   1
Atom   2C    basis set group =>   1
Atom   3H    basis set group =>   2
Atom   4C    basis set group =>   1
Atom   5C    basis set group =>   1
Atom   6C    basis set group =>   1
Atom   7C    basis set group =>   1
Atom   8H    basis set group =>   2
Atom   9H    basis set group =>   2
Atom  10H    basis set group =>   2
Atom  11H    basis set group =>   2
Atom  12H    basis set group =>   2
Atom  13H    basis set group =>   2
Atom  14H    basis set group =>   2
Atom  15H    basis set group =>   2
Atom  16H    basis set group =>   2
Atom  17H    basis set group =>   2
Atom  18H    basis set group =>   2
Atom  19H    basis set group =>   2
Atom  20H    basis set group =>   2
Atom  21H    basis set group =>   2
Atom  22H    basis set group =>   2
---------------------------------
AUXILIARY/J BASIS SET INFORMATION
---------------------------------
There are 2 groups of distinct atoms

 Group   1 Type C   : 12s5p4d2f1g contracted to 6s4p3d1f1g pattern {711111/2111/211/2/1}
 Group   2 Type H   : 5s2p1d contracted to 3s1p1d pattern {311/2/1}

Atom   0C    basis set group =>   1
Atom   1C    basis set group =>   1
Atom   2C    basis set group =>   1
Atom   3H    basis set group =>   2
Atom   4C    basis set group =>   1
Atom   5C    basis set group =>   1
Atom   6C    basis set group =>   1
Atom   7C    basis set group =>   1
Atom   8H    basis set group =>   2
Atom   9H    basis set group =>   2
Atom  10H    basis set group =>   2
Atom  11H    basis set group =>   2
Atom  12H    basis set group =>   2
Atom  13H    basis set group =>   2
Atom  14H    basis set group =>   2
Atom  15H    basis set group =>   2
Atom  16H    basis set group =>   2
Atom  17H    basis set group =>   2
Atom  18H    basis set group =>   2
Atom  19H    basis set group =>   2
Atom  20H    basis set group =>   2
Atom  21H    basis set group =>   2
Atom  22H    basis set group =>   2

Checking for AutoStart:
The File: sp_solv.gbw exists
Trying to determine its content:
     ... Fine, the file contains calculation information
     ... Fine, the calculation information was read
     ... Fine, the file contains a basis set
     ... Fine, the basis set was read
     ... Fine, the file contains a geometry
     ... Fine, the geometry was read
     ... Fine, the file contains a set of orbitals
     ... Fine, the orbitals can be read
     => possible old guess file was deleted
     => GBW file was renamed to GES file
     => GES file is set as startup file
     => Guess is set to MORead
     ... now leaving AutoStart

------------------------------------------------------------------------------
                             ORCA STARTUP CALCULATIONS
                           -- RI-GTO INTEGRALS CHOSEN --
------------------------------------------------------------------------------
------------------------------------------------------------------------------
                   ___                                                        
                  /   \      - P O W E R E D   B Y -                         
                 /     \                                                     
                 |  |  |   _    _      __       _____    __    __             
                 |  |  |  | |  | |    /  \     |  _  \  |  |  /  |          
                  \  \/   | |  | |   /    \    | | | |  |  | /  /          
                 / \  \   | |__| |  /  /\  \   | |_| |  |  |/  /          
                |  |  |   |  __  | /  /__\  \  |    /   |      \           
                |  |  |   | |  | | |   __   |  |    \   |  |\   \          
                \     /   | |  | | |  |  |  |  | |\  \  |  | \   \       
                 \___/    |_|  |_| |__|  |__|  |_| \__\ |__|  \__/        
                                                                              
                      - O R C A' S   B I G   F R I E N D -                    
                                      &                                       
                       - I N T E G R A L  F E E D E R -                       
                                                                              
 v1 FN, 2020, v2 2021, v3 2022-2024                                           
------------------------------------------------------------------------------


----------------------
SHARK INTEGRAL PACKAGE
----------------------

Number of atoms                             ...     23
Number of basis functions                   ...    213
Number of shells                            ...    111
Maximum angular momentum                    ...      2
Integral batch strategy                     ... SHARK/LIBINT Hybrid
RI-J (if used) integral strategy            ... SPLIT-RIJ (Revised 2003 algorithm where possible)
Printlevel                                  ...      1
Contraction scheme used                     ... SEGMENTED contraction
Prescreening option                         ... SCHWARTZ
   Thresh                                   ... 1.000e-10
   Tcut                                     ... 1.000e-11
   Tpresel                                  ... 1.000e-11 
Coulomb Range Separation                    ... NOT USED
Exchange Range Separation                   ... NOT USED
Multipole approximations                    ... NOT USED
Finite Nucleus Model                        ... NOT USED
CABS basis                                  ... NOT available
Auxiliary Coulomb fitting basis             ... AVAILABLE
   # of basis functions in Aux-J            ...    519
   # of shells in Aux-J                     ...    185
   Maximum angular momentum in Aux-J        ...      4
Auxiliary J/K fitting basis                 ... NOT available
Auxiliary Correlation fitting basis         ... NOT available
Auxiliary 'external' fitting basis          ... NOT available

Checking pre-screening integrals            ... done (  0.0 sec) Dimension = 111
Check shell pair data                       ... done (  0.0 sec)
Shell pair information
Shell pair cut-off parameter TPreSel        ...   1.0e-11
Total number of shell pairs                 ...      6216
Shell pairs after pre-screening             ...      5705
Total number of primitive shell pairs       ...     21523
Primitive shell pairs kept                  ...     14215
          la=0 lb=0:   2088 shell pairs
          la=1 lb=0:   2270 shell pairs
          la=1 lb=1:    636 shell pairs
          la=2 lb=0:    439 shell pairs
          la=2 lb=1:    244 shell pairs
          la=2 lb=2:     28 shell pairs

Calculating one electron integrals          ... done (  0.0 sec)
Calculating RI/J V-Matrix + Cholesky decomp.... done (  0.1 sec)
Calculating Nuclear repulsion               ... done (  0.0 sec) ENN=    337.087148326857 Eh

Diagonalization of the overlap matrix:
Smallest eigenvalue                        ... 8.751e-05
Time for diagonalization                   ...    0.004 sec
Threshold for overlap eigenvalues          ... 1.000e-07
Number of eigenvalues below threshold      ... 0
Time for construction of square roots      ...    0.013 sec
Total time needed                          ...    0.026 sec

-------------------
DFT GRID GENERATION
-------------------

General Integration Accuracy     IntAcc      ... 4.388
Radial Grid Type                 RadialGrid  ... OptM3 with GC (2021)
Angular Grid (max. ang.)         AngularGrid ... 4 (Lebedev-302)
Angular grid pruning method      GridPruning ... 4 (adaptive)
Weight generation scheme         WeightScheme... mBecke (2022)
Basis function cutoff            BFCut       ... 1.0000e-10
Integration weight cutoff        WCut        ... 1.0000e-14
Partially contracted basis set               ... off
Rotationally invariant grid construction     ... off
Angular grids for H and He will be reduced by one unit

Total number of grid points                  ...    92847
Total number of batches                      ...     1461
Average number of points per batch           ...       63
Average number of grid points per atom       ...     4037
Initializing property integral containers    ... done (  0.0 sec)

SHARK setup successfully completed in   1.2 seconds

Maximum memory used throughout the entire STARTUP-calculation: 39.0 MB
-------------------------------------------------------------------------------
                                 ORCA GUESS
                   Start orbitals & Density for SCF / CASSCF
-------------------------------------------------------------------------------

------------
SCF SETTINGS
------------
Hamiltonian:
 Density Functional     Method          .... DFT(GTOs)
  Functional kind                       .... Exchange
  Functional name                       .... Re-regularized SCAN exchange by Furness et al
  Functional family                     .... MGGA
  Functional refs                              
    [ 0] J. W. Furness, A. D. Kaplan, J. Ning, J. P. Perdew, and J. Sun.,  J. Phys. Chem. Lett. 11, 8208-8215 (2020), doi: 10.1021/acs.jpclett.0c02405
    [ 1] J. W. Furness, A. D. Kaplan, J. Ning, J. P. Perdew, and J. Sun.,  J. Phys. Chem. Lett. 11, 9248-9248 (2020), doi: 10.1021/acs.jpclett.0c03077
  Functional external parameters        .... 6
    Parameter  0 _c1        =  6.670000e-01 : c1 parameter        
    Parameter  1 _c2        =  8.000000e-01 : c2 parameter        
    Parameter  2 _d         =  1.240000e+00 : d parameter         
    Parameter  3 _k1        =  6.500000e-02 : k1 parameter        
    Parameter  4 _eta       =  1.000000e-03 : eta parameter       
    Parameter  5 _dp2       =  3.610000e-01 : dp2 parameter       
  Functional kind                       .... Correlation
  Functional name                       .... Re-regularized SCAN correlation by Furness et al
  Functional family                     .... MGGA
  Functional refs                              
    [ 0] J. W. Furness, A. D. Kaplan, J. Ning, J. P. Perdew, and J. Sun.,  J. Phys. Chem. Lett. 11, 8208-8215 (2020), doi: 10.1021/acs.jpclett.0c02405
    [ 1] J. W. Furness, A. D. Kaplan, J. Ning, J. P. Perdew, and J. Sun.,  J. Phys. Chem. Lett. 11, 9248-9248 (2020), doi: 10.1021/acs.jpclett.0c03077
  Functional external parameters        .... 1
    Parameter  0 _eta       =  1.000000e-03 : Regularization parameter
 Gradients option       PostSCFGGA      .... off
 RI-approximation to the Coulomb term is turned on
   Number of AuxJ basis functions       .... 519


General Settings:
 Integral files         IntName         .... sp_solv
 Hartree-Fock type      HFTyp           .... RHF
 Total Charge           Charge          ....    0
 Multiplicity           Mult            ....    1
 Number of Electrons    NEL             ....   58
 Basis Dimension        Dim             ....  213
 Nuclear Repulsion      ENuc            ....    337.0871483269 Eh

Convergence Acceleration:
 AO-DIIS                CNVDIIS         .... on
   Start iteration      DIISMaxIt       ....    12
   Startup error        DIISStart       ....  0.200000
   # of expansion vecs  DIISMaxEq       ....     5
   Bias factor          DIISBfac        ....   1.050
   Max. coefficient     DIISMaxC        ....  10.000
 MO-DIIS                CNVKDIIS        .... off
 Trust-Rad. Augm. Hess. CNVTRAH         .... auto
   Auto Start mean grad. ratio tolernc. ....  1.125000
   Auto Start start iteration           ....     1
   Auto Start num. interpolation iter.  ....    10
   Max. Number of Micro iterations      ....    24
   Max. Number of Macro iterations      .... Maxiter - #DIIS iter
   Number of Davidson start vectors     ....     2
   Converg. threshold    (grad. norm)   ....   3.330e-04
   Grad. Scal. Fac. for Micro threshold ....   0.100
   Minimum threshold for Micro iter.    ....   1.000e-02
   NR start threshold (gradient norm)   ....   1.000e-04
   Initial trust radius                 ....   0.400
   Minimum AH scaling param. (alpha)    ....   1.000
   Maximum AH scaling param. (alpha)    .... 1000.000
   Quad. conv. algorithm                .... NR
   White noise on init. David. guess    .... on
   Maximum white noise                  ....   0.010
   Pseudo random numbers                .... off
   Inactive MOs                         .... canonical
   Orbital update algorithm             .... Taylor
   Preconditioner                       .... Diag
   Full preconditioner red. dimension   ....   250
   COSX micro iterations for RIJONX calc.... off
 SOSCF                  CNVSOSCF        .... on
   Start iteration      SOSCFMaxIt      ....   150
   Startup grad/error   SOSCFStart      ....  0.003300
   Hessian update       SOSCFHessUp     .... L-BFGS
 Level Shifting         CNVShift        .... on
   Level shift para.    LevelShift      ....    0.2500
   Turn off err/grad.   ShiftErr        ....    0.0010
 Zerner damping         CNVZerner       .... off
 Static damping         CNVDamp         .... on
   Fraction old density DampFac         ....    0.7000
   Max. Damping (<1)    DampMax         ....    0.9800
   Min. Damping (>=0)   DampMin         ....    0.0000
   Turn off err/grad.   DampErr         ....    0.1000

SCF Procedure:
 Maximum # iterations   MaxIter         ....   125
 SCF integral mode      SCFMode         .... Direct
   Integral package                     .... SHARK and LIBINT hybrid scheme
 Reset frequency        DirectResetFreq ....    20
 Integral Threshold     Thresh          ....  1.000e-10 Eh
 Primitive CutOff       TCut            ....  1.000e-11 Eh

Convergence Tolerance:
 Convergence Check Mode ConvCheckMode   .... Total+1el-Energy
 Convergence forced     ConvForced      .... 0
 Energy Change          TolE            ....  1.000e-06 Eh
 1-El. energy change                    ....  1.000e-03 Eh
 Orbital Gradient       TolG            ....  3.330e-04
 Orbital Rotation angle TolX            ....  3.330e-04
 DIIS Error             TolErr          ....  1.000e-06

---------------------
INITIAL GUESS: MOREAD
---------------------
Guess MOs are being read from file: sp_solv.ges
Input Geometry matches current geometry (good)
Atom 0: N(Shells)= 9 and 6 - projection required
Input basis set needs projection
NBasis(read)= 130
NBasis(calc)= 213
Basis set overlap was calculated
Using GuessMode=FMatrix for the initial guess
C*T matrix was formed
Effective Fockian was calculated
Effective Fockian was diagonalized
Initial density was built
                      ------------------
                      INITIAL GUESS DONE (   0.0 sec)
                      ------------------
             **** ENERGY FILE WAS UPDATED (sp_solv.en.tmp) ****
Finished Guess after   0.3 sec
Maximum memory used throughout the entire GUESS-calculation: 14.8 MB

-------------------------------------------------------------------------------------------
                                      ORCA LEAN-SCF
                              memory conserving SCF solver
-------------------------------------------------------------------------------------------

--------------------
CPCM SOLVATION MODEL
--------------------
CPCM parameters:
  Epsilon                                         ...      78.3550
  Refrac                                          ...       1.3328
  Rsolv                                           ...       1.3000
  Surface type                                    ... GAUSSIAN VDW
  Discretization scheme                           ... Constant charge density
    Threshold for H atoms                         ...       5.0000 (charges/Ang^2)
    Threshold for non-H atoms                     ...       5.0000 (charges/Ang^2)
  Epsilon function type                           ...         CPCM
Solvent:                                          ... WATER
SMD-CDS solvent descriptors:
  Soln                                            ...       1.3328
  Soln25                                          ...       1.3323
  Sola                                            ...       0.0000
  Solb                                            ...       0.0000
  Solg                                            ...       0.0000
  Solc                                            ...       0.0000
  Solh                                            ...       0.0000
Radii:
  Scheme                                          ... Element-dependent radii
  Radius for C  used is    3.4960 Bohr (=   1.8500 Ang.)
  Radius for H  used is    2.2677 Bohr (=   1.2000 Ang.)
Calculating surface                               ...        done! (  0.0s)
Cavity surface points                             ...         1671
Cavity Volume                                     ...     916.2852
Cavity Surface-area                               ...     592.5678
Calculating surface distance matrix               ...        done! (  0.0s)
Performing Cholesky decomposition & store         ...        done! (  0.1s)
Overall time for CPCM initialization              ...                 0.1s

----------------------------------------D-I-I-S--------------------------------------------
Iteration    Energy (Eh)           Delta-E    RMSDP     MaxDP     DIISErr   Damp  Time(sec)
-------------------------------------------------------------------------------------------
               ***  Starting incremental Fock matrix formation  ***
    1    -276.1378966088377069     0.00e+00  5.54e-03  2.68e-01  2.85e-01  0.700   3.2
    2    -276.1824186557394682    -4.45e-02  4.28e-03  1.81e-01  2.01e-01  0.700   3.0
                               ***Turning on AO-DIIS***
    3    -276.2139707923118408    -3.16e-02  3.10e-03  1.22e-01  1.41e-01  0.700   2.9
    4    -276.2361386486938386    -2.22e-02  2.20e-03  8.33e-02  9.83e-02  0.700   2.8
    5    -276.2516976566971039    -1.56e-02  5.18e-03  1.92e-01  6.88e-02  0.000   2.8
                              *** Initializing SOSCF ***
---------------------------------------S-O-S-C-F--------------------------------------
Iteration    Energy (Eh)           Delta-E    RMSDP     MaxDP     MaxGrad    Time(sec)
--------------------------------------------------------------------------------------
    6    -276.2881510093561133    -3.65e-02  6.80e-05  1.88e-03  2.67e-04     2.9
               *** Restarting incremental Fock matrix formation ***
    7    -276.2881521914792415    -1.18e-06  2.66e-05  5.81e-04  4.28e-05     3.2
                  *** Gradient check signals convergence ***

               *****************************************************
               *                     SUCCESS                       *
               *           SCF CONVERGED AFTER   7 CYCLES          *
               *****************************************************


SMD CDS free energy correction energy :                 3.94548     Kcal/mol
Total Energy after SMD CDS correction =              -276.281864662 Eh
             **** ENERGY FILE WAS UPDATED (sp_solv.en.tmp) ****

----------------
TOTAL SCF ENERGY
----------------

Total Energy       :       -276.28186466177743 Eh           -7518.01175 eV

Components:
Nuclear Repulsion  :        337.08714832685672 Eh            9172.60763 eV
Electronic Energy  :       -613.37266681861456 Eh          -16690.71880 eV
One Electron Energy:      -1038.35723331891290 Eh          -28255.13678 eV
Two Electron Energy:        424.98456650029840 Eh           11564.41798 eV
CPCM Dielectric    :         -0.00263369972152 Eh              -0.07167 eV
SMD CDS (Gcds)     :          0.00628752970179 Eh               0.17109 eV

Virial components:
Potential Energy   :       -551.24739004828257 Eh          -15000.20408 eV
Kinetic Energy     :        274.96552538650513 Eh            7482.19233 eV
Virial Ratio       :          2.00478728841887

DFT components:
N(Alpha)           :       29.000034290897 electrons
N(Beta)            :       29.000034290897 electrons
N(Total)           :       58.000068581794 electrons
E(X)               :      -42.136158051916 Eh       
E(C)               :       -1.781784590271 Eh       
E(XC)              :      -43.917942642187 Eh       

CPCM Solvation Model Properties:
Surface-charge          :         -0.05190587094512
Corrected charge        :          0.00000000000000
Outlying charge corr.   :          0.00020726011362 Eh               0.00564 eV
Free-energy (cav+disp)  :          0.00628752970179 Eh               0.17109 eV

---------------
SCF CONVERGENCE
---------------

  Last Energy change         ...    1.1821e-06  Tolerance :   1.0000e-06
  Last MAX-Density change    ...    5.8065e-04  Tolerance :   1.0000e-05
  Last RMS-Density change    ...    2.6600e-05  Tolerance :   1.0000e-06
  Last DIIS Error            ...    2.6689e-04  Tolerance :   1.0000e-06
  Last Orbital Gradient      ...    4.2771e-05  Tolerance :   3.3300e-04
  Last Orbital Rotation      ...    1.0680e-04  Tolerance :   3.3300e-04


----------------
ORBITAL ENERGIES
----------------

  NO   OCC          E(Eh)            E(eV) 
   0   2.0000     -10.020883      -272.6821 
   1   2.0000     -10.018744      -272.6239 
   2   2.0000     -10.012434      -272.4522 
   3   2.0000     -10.006033      -272.2780 
   4   2.0000     -10.004543      -272.2374 
   5   2.0000     -10.003732      -272.2154 
   6   2.0000     -10.003451      -272.2077 
   7   2.0000      -0.779368       -21.2077 
   8   2.0000      -0.720368       -19.6022 
   9   2.0000      -0.678653       -18.4671 
  10   2.0000      -0.639079       -17.3902 
  11   2.0000      -0.592549       -16.1241 
  12   2.0000      -0.551764       -15.0143 
  13   2.0000      -0.501029       -13.6337 
  14   2.0000      -0.423556       -11.5255 
  15   2.0000      -0.421345       -11.4654 
  16   2.0000      -0.392419       -10.6783 
  17   2.0000      -0.383676       -10.4404 
  18   2.0000      -0.373395       -10.1606 
  19   2.0000      -0.357940        -9.7400 
  20   2.0000      -0.347595        -9.4585 
  21   2.0000      -0.335103        -9.1186 
  22   2.0000      -0.324297        -8.8246 
  23   2.0000      -0.314256        -8.5513 
  24   2.0000      -0.300282        -8.1711 
  25   2.0000      -0.294816        -8.0223 
  26   2.0000      -0.271123        -7.3776 
  27   2.0000      -0.265471        -7.2238 
  28   2.0000      -0.260742        -7.0952 
  29   0.0000       0.090751         2.4695 
  30   0.0000       0.108508         2.9527 
  31   0.0000       0.119606         3.2546 
  32   0.0000       0.122020         3.3203 
  33   0.0000       0.132477         3.6049 
  34   0.0000       0.139600         3.7987 
  35   0.0000       0.148271         4.0347 
  36   0.0000       0.155999         4.2450 
  37   0.0000       0.159921         4.3517 
  38   0.0000       0.165227         4.4961 
  39   0.0000       0.172893         4.7047 
*Only the first 10 virtual orbitals were printed.

                    ********************************
                    * MULLIKEN POPULATION ANALYSIS *
                    ********************************

-----------------------
MULLIKEN ATOMIC CHARGES
-----------------------
   0 C :   -0.542768
   1 C :   -0.280627
   2 C :   -0.029546
   3 H :    0.167201
   4 C :   -0.558200
   5 C :   -0.031033
   6 C :   -0.546951
   7 C :   -0.559348
   8 H :    0.160191
   9 H :    0.159949
  10 H :    0.156379
  11 H :    0.156927
  12 H :    0.144213
  13 H :    0.166832
  14 H :    0.157952
  15 H :    0.156948
  16 H :    0.164438
  17 H :    0.162073
  18 H :    0.159745
  19 H :    0.152275
  20 H :    0.156843
  21 H :    0.156904
  22 H :    0.169603
Sum of atomic charges:   -0.0000000

--------------------------------
MULLIKEN REDUCED ORBITAL CHARGES
--------------------------------
  0 C s       :     3.361603  s :     3.361603
      pz      :     1.097883  p :     3.153946
      px      :     1.098876
      py      :     0.957187
      dz2     :     0.003146  d :     0.027218
      dxz     :     0.005733
      dyz     :     0.006819
      dx2y2   :     0.005881
      dxy     :     0.005639

  1 C s       :     3.241598  s :     3.241598
      pz      :     1.039363  p :     3.001792
      px      :     1.011979
      py      :     0.950450
      dz2     :     0.005990  d :     0.037236
      dxz     :     0.007369
      dyz     :     0.007983
      dx2y2   :     0.007973
      dxy     :     0.007922

  2 C s       :     3.105461  s :     3.105461
      pz      :     0.973557  p :     2.879423
      px      :     0.956358
      py      :     0.949507
      dz2     :     0.006437  d :     0.044663
      dxz     :     0.009652
      dyz     :     0.010269
      dx2y2   :     0.010993
      dxy     :     0.007312

  3 H s       :     0.815202  s :     0.815202
      pz      :     0.008215  p :     0.017597
      px      :     0.003474
      py      :     0.005908

  4 C s       :     3.373167  s :     3.373167
      pz      :     1.093110  p :     3.157559
      px      :     1.110361
      py      :     0.954088
      dz2     :     0.001774  d :     0.027474
      dxz     :     0.006874
      dyz     :     0.007985
      dx2y2   :     0.007455
      dxy     :     0.003386

  5 C s       :     3.090016  s :     3.090016
      pz      :     1.028774  p :     2.895934
      px      :     0.942203
      py      :     0.924957
      dz2     :     0.008848  d :     0.045083
      dxz     :     0.008365
      dyz     :     0.007686
      dx2y2   :     0.008614
      dxy     :     0.011570

  6 C s       :     3.364742  s :     3.364742
      pz      :     1.051950  p :     3.154701
      px      :     1.089385
      py      :     1.013366
      dz2     :     0.006362  d :     0.027508
      dxz     :     0.004945
      dyz     :     0.004389
      dx2y2   :     0.003388
      dxy     :     0.008423

  7 C s       :     3.372746  s :     3.372746
      pz      :     1.103305  p :     3.159125
      px      :     1.016660
      py      :     1.039160
      dz2     :     0.003424  d :     0.027477
      dxz     :     0.006586
      dyz     :     0.005718
      dx2y2   :     0.004871
      dxy     :     0.006878

  8 H s       :     0.821557  s :     0.821557
      pz      :     0.009074  p :     0.018252
      px      :     0.003919
      py      :     0.005260

  9 H s       :     0.821610  s :     0.821610
      pz      :     0.005384  p :     0.018442
      px      :     0.007523
      py      :     0.005534

 10 H s       :     0.825289  s :     0.825289
      pz      :     0.005932  p :     0.018332
      px      :     0.008751
      py      :     0.003649

 11 H s       :     0.825245  s :     0.825245
      pz      :     0.009170  p :     0.017828
      px      :     0.003581
      py      :     0.005077

 12 H s       :     0.837852  s :     0.837852
      pz      :     0.004967  p :     0.017935
      px      :     0.007755
      py      :     0.005213

 13 H s       :     0.814802  s :     0.814802
      pz      :     0.007889  p :     0.018366
      px      :     0.003768
      py      :     0.006708

 14 H s       :     0.823516  s :     0.823516
      pz      :     0.006225  p :     0.018531
      px      :     0.008543
      py      :     0.003764

 15 H s       :     0.824777  s :     0.824777
      pz      :     0.005714  p :     0.018275
      px      :     0.008495
      py      :     0.004066

 16 H s       :     0.817856  s :     0.817856
      pz      :     0.009742  p :     0.017706
      px      :     0.003941
      py      :     0.004022

 17 H s       :     0.819730  s :     0.819730
      pz      :     0.009874  p :     0.018197
      px      :     0.004390
      py      :     0.003932

 18 H s       :     0.821943  s :     0.821943
      pz      :     0.003764  p :     0.018312
      px      :     0.007213
      py      :     0.007336

 19 H s       :     0.829472  s :     0.829472
      pz      :     0.005443  p :     0.018253
      px      :     0.008147
      py      :     0.004663

 20 H s       :     0.824897  s :     0.824897
      pz      :     0.005792  p :     0.018260
      px      :     0.007669
      py      :     0.004799

 21 H s       :     0.824600  s :     0.824600
      pz      :     0.005347  p :     0.018496
      px      :     0.004410
      py      :     0.008740

 22 H s       :     0.812048  s :     0.812048
      pz      :     0.009376  p :     0.018349
      px      :     0.004765
      py      :     0.004207


------------------------
MULLIKEN OVERLAP CHARGES
------------------------
B(  0-C ,  1-C ) :   0.3816 B(  0-C ,  2-C ) :  -0.1723 B(  0-C ,  8-H ) :   0.8788 
B(  0-C ,  9-H ) :   0.8376 B(  0-C , 10-H ) :   0.8051 B(  0-C , 12-H ) :  -0.0695 
B(  1-C ,  2-C ) :   0.3011 B(  1-C ,  3-H ) :  -0.0982 B(  1-C ,  4-C ) :  -0.2037 
B(  1-C ,  8-H ) :  -0.1140 B(  1-C ,  9-H ) :  -0.0743 B(  1-C , 10-H ) :  -0.0839 
B(  1-C , 11-H ) :   0.8438 B(  1-C , 12-H ) :   0.8774 B(  2-C ,  3-H ) :   0.9477 
B(  2-C ,  4-C ) :   0.4147 B(  2-C ,  5-C ) :   0.1427 B(  2-C ,  6-C ) :  -0.0594 
B(  2-C ,  7-C ) :  -0.0634 B(  2-C , 11-H ) :  -0.0769 B(  2-C , 12-H ) :  -0.1408 
B(  2-C , 13-H ) :  -0.1210 B(  2-C , 14-H ) :  -0.0868 B(  2-C , 15-H ) :  -0.0695 
B(  2-C , 16-H ) :  -0.1873 B(  3-H ,  4-C ) :  -0.0697 B(  3-H ,  5-C ) :  -0.1890 
B(  4-C ,  5-C ) :  -0.0516 B(  4-C ,  7-C ) :  -0.1326 B(  4-C , 13-H ) :   0.8879 
B(  4-C , 14-H ) :   0.8146 B(  4-C , 15-H ) :   0.8048 B(  5-C ,  6-C ) :   0.3730 
B(  5-C ,  7-C ) :   0.4322 B(  5-C , 16-H ) :   0.9131 B(  5-C , 17-H ) :  -0.0833 
B(  5-C , 18-H ) :  -0.0798 B(  5-C , 19-H ) :  -0.1033 B(  5-C , 20-H ) :  -0.0681 
B(  5-C , 21-H ) :  -0.0724 B(  5-C , 22-H ) :  -0.1290 B(  6-C ,  7-C ) :  -0.2384 
B(  6-C , 16-H ) :  -0.0587 B(  6-C , 17-H ) :   0.8625 B(  6-C , 18-H ) :   0.8078 
B(  6-C , 19-H ) :   0.8243 B(  7-C , 16-H ) :  -0.0542 B(  7-C , 20-H ) :   0.7984 
B(  7-C , 21-H ) :   0.8026 B(  7-C , 22-H ) :   0.9031 B(  8-H ,  9-H ) :  -0.0512 



                     *******************************
                     * LOEWDIN POPULATION ANALYSIS *
                     *******************************

----------------------
LOEWDIN ATOMIC CHARGES
----------------------
   0 C :   -0.433847
   1 C :   -0.309687
   2 C :   -0.230867
   3 H :    0.160737
   4 C :   -0.421332
   5 C :   -0.238032
   6 C :   -0.424767
   7 C :   -0.422574
   8 H :    0.152270
   9 H :    0.152162
  10 H :    0.151977
  11 H :    0.155946
  12 H :    0.154460
  13 H :    0.156174
  14 H :    0.155177
  15 H :    0.154697
  16 H :    0.159676
  17 H :    0.154684
  18 H :    0.154225
  19 H :    0.152652
  20 H :    0.155032
  21 H :    0.155694
  22 H :    0.155543

-------------------------------
LOEWDIN REDUCED ORBITAL CHARGES
-------------------------------
  0 C s       :     2.973088  s :     2.973088
      pz      :     1.157330  p :     3.397409
      px      :     1.148071
      py      :     1.092008
      dz2     :     0.007729  d :     0.063350
      dxz     :     0.014360
      dyz     :     0.015169
      dx2y2   :     0.013750
      dxy     :     0.012342

  1 C s       :     2.939802  s :     2.939802
      pz      :     1.121202  p :     3.289348
      px      :     1.086347
      py      :     1.081800
      dz2     :     0.013090  d :     0.080536
      dxz     :     0.016885
      dyz     :     0.016801
      dx2y2   :     0.017229
      dxy     :     0.016531

  2 C s       :     2.907782  s :     2.907782
      pz      :     1.094725  p :     3.231629
      px      :     1.057324
      py      :     1.079579
      dz2     :     0.012222  d :     0.091457
      dxz     :     0.020728
      dyz     :     0.021996
      dx2y2   :     0.023372
      dxy     :     0.013138

  3 H s       :     0.795550  s :     0.795550
      pz      :     0.020765  p :     0.043713
      px      :     0.008490
      py      :     0.014459

  4 C s       :     2.968505  s :     2.968505
      pz      :     1.146975  p :     3.388733
      px      :     1.157071
      py      :     1.084687
      dz2     :     0.003884  d :     0.064094
      dxz     :     0.017147
      dyz     :     0.018452
      dx2y2   :     0.017841
      dxy     :     0.006770

  5 C s       :     2.906403  s :     2.906403
      pz      :     1.108724  p :     3.239417
      px      :     1.064384
      py      :     1.066309
      dz2     :     0.018878  d :     0.092212
      dxz     :     0.017153
      dyz     :     0.015779
      dx2y2   :     0.016057
      dxy     :     0.024345

  6 C s       :     2.974636  s :     2.974636
      pz      :     1.142807  p :     3.385997
      px      :     1.143943
      py      :     1.099247
      dz2     :     0.014868  d :     0.064134
      dxz     :     0.011922
      dyz     :     0.010138
      dx2y2   :     0.007269
      dxy     :     0.019937

  7 C s       :     2.969126  s :     2.969126
      pz      :     1.156664  p :     3.389458
      px      :     1.108851
      py      :     1.123944
      dz2     :     0.008552  d :     0.063990
      dxz     :     0.015294
      dyz     :     0.013411
      dx2y2   :     0.010268
      dxy     :     0.016464

  8 H s       :     0.804124  s :     0.804124
      pz      :     0.022615  p :     0.043606
      px      :     0.008733
      py      :     0.012257

  9 H s       :     0.803392  s :     0.803392
      pz      :     0.012789  p :     0.044446
      px      :     0.018447
      py      :     0.013209

 10 H s       :     0.804155  s :     0.804155
      pz      :     0.014058  p :     0.043868
      px      :     0.021458
      py      :     0.008352

 11 H s       :     0.800622  s :     0.800622
      pz      :     0.022877  p :     0.043432
      px      :     0.008445
      py      :     0.012109

 12 H s       :     0.802133  s :     0.802133
      pz      :     0.011971  p :     0.043407
      px      :     0.019108
      py      :     0.012328

 13 H s       :     0.799663  s :     0.799663
      pz      :     0.019627  p :     0.044163
      px      :     0.008304
      py      :     0.016231

 14 H s       :     0.800470  s :     0.800470
      pz      :     0.014855  p :     0.044353
      px      :     0.020868
      py      :     0.008630

 15 H s       :     0.801423  s :     0.801423
      pz      :     0.013473  p :     0.043881
      px      :     0.021007
      py      :     0.009401

 16 H s       :     0.796468  s :     0.796468
      pz      :     0.024392  p :     0.043856
      px      :     0.009482
      py      :     0.009983

 17 H s       :     0.801514  s :     0.801514
      pz      :     0.024610  p :     0.043802
      px      :     0.010029
      py      :     0.009162

 18 H s       :     0.801772  s :     0.801772
      pz      :     0.008391  p :     0.044003
      px      :     0.017628
      py      :     0.017984

 19 H s       :     0.803517  s :     0.803517
      pz      :     0.013017  p :     0.043832
      px      :     0.019894
      py      :     0.010921

 20 H s       :     0.801052  s :     0.801052
      pz      :     0.013741  p :     0.043915
      px      :     0.018624
      py      :     0.011550

 21 H s       :     0.800049  s :     0.800049
      pz      :     0.012556  p :     0.044257
      px      :     0.010372
      py      :     0.021329

 22 H s       :     0.800256  s :     0.800256
      pz      :     0.023472  p :     0.044201
      px      :     0.011110
      py      :     0.009618


---------------------------------
LOEWDIN BOND ORDERS (THRESH 0.050000)
---------------------------------
B(  0-C ,  1-C ) :   1.1393 B(  0-C ,  2-C ) :   0.0668 B(  0-C ,  8-H ) :   0.9285 
B(  0-C ,  9-H ) :   0.9238 B(  0-C , 10-H ) :   0.9287 B(  1-C ,  2-C ) :   1.0721 
B(  1-C ,  4-C ) :   0.0791 B(  1-C ,  5-C ) :   0.0700 B(  1-C , 11-H ) :   0.8896 
B(  1-C , 12-H ) :   0.8875 B(  2-C ,  3-H ) :   0.8528 B(  2-C ,  4-C ) :   1.1060 
B(  2-C ,  5-C ) :   1.0212 B(  2-C ,  6-C ) :   0.0772 B(  2-C ,  7-C ) :   0.0556 
B(  4-C ,  5-C ) :   0.0557 B(  4-C , 13-H ) :   0.9192 B(  4-C , 14-H ) :   0.9195 
B(  4-C , 15-H ) :   0.9212 B(  5-C ,  6-C ) :   1.1097 B(  5-C ,  7-C ) :   1.1102 
B(  5-C , 16-H ) :   0.8549 B(  6-C ,  7-C ) :   0.0737 B(  6-C , 17-H ) :   0.9226 
B(  6-C , 18-H ) :   0.9227 B(  6-C , 19-H ) :   0.9234 B(  7-C , 20-H ) :   0.9211 
B(  7-C , 21-H ) :   0.9208 B(  7-C , 22-H ) :   0.9199 

------------------------------------------
LOEWDIN REDUCED ORBITAL POPULATIONS PER MO
-------------------------------------------
THRESHOLD FOR PRINTING IS 0.1%%
                      0         1         2         3         4         5   
                 -10.02088 -10.01874 -10.01243 -10.00603 -10.00454 -10.00373
                   2.00000   2.00000   2.00000   2.00000   2.00000   2.00000
                  --------  --------  --------  --------  --------  --------
 0 C  s               0.0       0.0       0.0      99.7       0.0       0.0
 1 C  s               0.0       0.0      99.7       0.0       0.0       0.0
 2 C  s               0.1      99.6       0.0       0.0       0.0       0.0
 5 C  s              99.6       0.1       0.0       0.0       0.0       0.0
 6 C  s               0.0       0.0       0.0       0.0      99.7       0.0
 7 C  s               0.0       0.0       0.0       0.0       0.0      99.7

                      6         7         8         9        10        11   
                 -10.00345  -0.77937  -0.72037  -0.67865  -0.63908  -0.59255
                   2.00000   2.00000   2.00000   2.00000   2.00000   2.00000
                  --------  --------  --------  --------  --------  --------
 0 C  s               0.0       3.6      12.3      14.7       0.9      10.9
 0 C  pz              0.0       0.1       0.1       0.0       0.0       0.1
 0 C  px              0.0       0.3       0.1       0.0       0.0       0.6
 0 C  py              0.0       1.0       1.3       0.1       0.0       2.3
 1 C  s               0.0      10.4      15.2       2.8       0.1       3.2
 1 C  pz              0.0       0.5       0.0       1.4       0.2       0.4
 1 C  px              0.0       1.5       0.1       1.8       0.2       2.4
 1 C  py              0.0       0.1       0.7       4.1       0.1       2.2
 1 C  dx2y2           0.0       0.0       0.0       0.1       0.0       0.1
 2 C  s               0.0      19.9       1.9       5.3       0.7       5.1
 2 C  pz              0.0       0.8       0.0       2.3       0.3       2.4
 2 C  px              0.0       0.1       6.7       0.2       0.0       0.3
 2 C  py              0.1       0.0       0.3       6.4       0.5       3.7
 2 C  dxz             0.0       0.0       0.1       0.0       0.0       0.0
 2 C  dx2y2           0.0       0.0       0.0       0.1       0.0       0.2
 3 H  s               0.0       2.4       0.3       0.8       0.5       1.0
 3 H  pz              0.0       0.2       0.0       0.0       0.0       0.1
 4 C  s              99.7       6.9       1.3      22.6       0.0      14.1
 4 C  pz              0.0       0.5       0.0       0.0       0.1       0.7
 4 C  px              0.0       0.0       0.4       0.0       0.2       0.1
 4 C  py              0.0       2.1       0.1       0.2       0.1       3.2
 5 C  s               0.0      17.6       9.7       0.8       0.0       1.8
 5 C  pz              0.0       0.7       0.0       0.2       2.4       0.2
 5 C  px              0.0       0.3       4.5       1.1       1.9       3.5
 5 C  py              0.0       0.1       0.2       1.7      10.7       0.5
 5 C  dxy             0.0       0.0       0.0       0.0       0.3       0.0
 6 C  s               0.0       6.0       9.3       4.0      18.3       4.1
 6 C  pz              0.0       0.3       0.3       0.1       0.2       0.1
 6 C  px              0.0       0.4       0.0       0.0       0.1       0.5
 6 C  py              0.0       1.6       0.8       0.0       0.7       0.6
 7 C  s               0.0       6.1       9.5       0.5      25.4       0.5
 7 C  pz              0.0       0.1       0.0       0.0       0.1       0.1
 7 C  px              0.0       1.4       0.3       0.1       0.2       0.3
 7 C  py              0.0       0.8       0.8       0.4       0.8       0.1
 8 H  s               0.0       0.4       1.9       2.8       0.2       3.4
 8 H  pz              0.0       0.0       0.1       0.2       0.0       0.2
 9 H  s               0.0       0.5       1.8       2.9       0.2       3.3
 9 H  px              0.0       0.0       0.1       0.1       0.0       0.2
10 H  s               0.0       0.4       2.0       2.9       0.3       3.9
10 H  px              0.0       0.0       0.1       0.2       0.0       0.2
11 H  s               0.0       1.2       2.2       0.5       0.0       1.1
11 H  pz              0.0       0.1       0.2       0.0       0.0       0.1
12 H  s               0.0       1.3       2.5       0.4       0.0       0.6
12 H  px              0.0       0.1       0.1       0.0       0.0       0.1
13 H  s               0.0       0.8       0.2       4.2       0.0       4.3
13 H  pz              0.0       0.0       0.0       0.2       0.0       0.2
13 H  py              0.0       0.0       0.0       0.2       0.0       0.1
14 H  s               0.0       0.8       0.1       4.3       0.0       5.1
14 H  pz              0.0       0.0       0.0       0.1       0.0       0.1
14 H  px              0.0       0.0       0.0       0.2       0.0       0.3
15 H  s               0.0       0.8       0.3       4.5       0.0       4.4
15 H  pz              0.0       0.0       0.0       0.1       0.0       0.1
15 H  px              0.0       0.0       0.0       0.3       0.0       0.3
16 H  s               0.0       2.2       1.3       0.3       0.0       0.8
16 H  pz              0.0       0.2       0.1       0.0       0.0       0.1
17 H  s               0.0       0.7       1.4       0.7       4.2       1.3
17 H  pz              0.0       0.1       0.1       0.1       0.3       0.1
18 H  s               0.0       0.7       1.3       0.8       5.0       1.2
18 H  px              0.0       0.0       0.1       0.0       0.2       0.1
18 H  py              0.0       0.0       0.1       0.0       0.2       0.0
19 H  s               0.0       0.7       1.5       0.8       4.0       1.6
19 H  px              0.0       0.0       0.1       0.0       0.2       0.1
20 H  s               0.0       0.7       1.6       0.2       5.9       0.2
20 H  pz              0.0       0.0       0.0       0.0       0.1       0.0
20 H  px              0.0       0.0       0.1       0.0       0.3       0.0
20 H  py              0.0       0.0       0.0       0.0       0.1       0.0
21 H  s               0.0       0.7       1.4       0.0       6.5       0.2
21 H  pz              0.0       0.0       0.0       0.0       0.1       0.0
21 H  py              0.0       0.0       0.1       0.0       0.4       0.0
22 H  s               0.0       0.7       1.4       0.1       5.7       0.3
22 H  pz              0.0       0.0       0.1       0.0       0.4       0.0

                     12        13        14        15        16        17   
                  -0.55176  -0.50103  -0.42356  -0.42134  -0.39242  -0.38368
                   2.00000   2.00000   2.00000   2.00000   2.00000   2.00000
                  --------  --------  --------  --------  --------  --------
 0 C  s               4.9       0.2       0.0       0.0       0.2       0.0
 0 C  pz              0.1       0.9       5.3       0.0       0.1      15.2
 0 C  px              0.0       0.0       0.6       6.4       6.9       5.2
 0 C  py              6.0       1.1       0.0       2.7       4.8       0.3
 1 C  s              11.5       1.1       0.0       0.4       0.6       0.0
 1 C  pz              0.1       5.2      11.3       0.2       1.4       6.7
 1 C  px              1.4       0.5       2.5      11.0       0.1       6.0
 1 C  py              5.4       1.0       0.1       0.3       5.4       0.1
 2 C  s               1.9       6.9       0.0       0.3       1.2       0.4
 2 C  pz              0.2       7.8       5.2       2.5       0.9       0.5
 2 C  px              7.0       0.7       6.1       3.8       0.1       0.5
 2 C  py              1.5       1.7       0.6       0.0      12.7       0.3
 2 C  dxz             0.2       0.0       0.0       0.0       0.0       0.0
 3 H  s               0.9       8.7       1.7       0.0       1.2       0.2
 3 H  pz              0.1       0.3       0.0       0.0       0.0       0.0
 3 H  py              0.0       0.2       0.0       0.0       0.0       0.0
 4 C  s               0.1       1.9       0.1       0.0       0.3       0.0
 4 C  pz              0.1       0.1       4.6       1.3      13.5       1.9
 4 C  px              0.6       0.0       7.0       1.8       2.5       1.5
 4 C  py              0.6       6.4       0.0       0.4       5.1       2.0
 4 C  dx2y2           0.0       0.1       0.0       0.0       0.2       0.0
 5 C  s               5.6       6.7       0.5       1.4       0.0       0.2
 5 C  pz              0.0       8.3       3.7      10.1       0.4       0.1
 5 C  px              4.1       0.1       3.9       3.6       1.5       1.7
 5 C  py              0.2       0.6       3.9       0.7       4.1       0.4
 6 C  s               4.5       0.5       0.2       0.3       0.1       0.1
 6 C  pz              0.5       3.9       6.1       1.3       0.0       0.5
 6 C  px              2.0       0.1       0.1       0.3      10.1       5.4
 6 C  py              1.8       0.8       0.9      12.3       0.1       2.2
 7 C  s               2.6       2.2       0.0       0.3       0.1       0.0
 7 C  pz              0.0       0.4       2.5       9.9       0.4       0.8
 7 C  px              2.5       3.8       1.3       1.0       2.9       6.3
 7 C  py              0.5       2.7       7.2       2.9       1.4       7.8
 7 C  dxy             0.1       0.1       0.0       0.1       0.0       0.0
 8 H  s               2.4       0.7       1.4       0.0       1.2       4.6
 8 H  pz              0.2       0.0       0.0       0.0       0.1       0.0
 8 H  py              0.0       0.0       0.0       0.0       0.0       0.1
 9 H  s               3.0       0.0       0.9       2.6       0.0       5.8
 9 H  px              0.1       0.0       0.0       0.0       0.0       0.1
 9 H  py              0.0       0.0       0.0       0.0       0.0       0.1
10 H  s               1.8       0.0       0.2       1.2       3.0       0.0
11 H  s               4.8       2.8       3.8       0.1       0.2       2.7
11 H  pz              0.3       0.1       0.1       0.0       0.0       0.0
12 H  s               6.3       0.4       2.2       3.1       0.2       3.5
12 H  pz              0.1       0.0       0.0       0.1       0.0       0.0
12 H  px              0.3       0.0       0.0       0.0       0.0       0.0
13 H  s               0.1       2.5       1.0       0.7       0.2       1.7
13 H  pz              0.0       0.1       0.0       0.0       0.0       0.0
14 H  s               0.0       0.8       0.1       1.0       6.9       0.0
14 H  px              0.0       0.0       0.0       0.0       0.2       0.0
15 H  s               0.2       1.0       4.0       0.2       1.0       0.7
15 H  px              0.0       0.0       0.1       0.0       0.1       0.0
16 H  s               2.0       7.9       1.6       2.2       0.1       0.1
16 H  pz              0.2       0.4       0.1       0.0       0.0       0.0
16 H  px              0.0       0.1       0.1       0.0       0.0       0.0
17 H  s               2.0       1.3       2.1       0.7       0.4       0.0
17 H  pz              0.1       0.0       0.0       0.0       0.0       0.0
18 H  s               1.4       0.5       0.8       3.8       1.2       3.4
19 H  s               2.6       0.1       0.2       1.4       3.3       0.8
20 H  s               1.5       1.1       2.4       1.8       0.2       2.5
21 H  s               1.0       1.1       1.2       3.5       0.0       5.2
22 H  s               1.3       2.7       1.0       0.7       1.6       0.4
22 H  pz              0.1       0.2       0.0       0.0       0.0       0.0

                     18        19        20        21        22        23   
                  -0.37339  -0.35794  -0.34759  -0.33510  -0.32430  -0.31426
                   2.00000   2.00000   2.00000   2.00000   2.00000   2.00000
                  --------  --------  --------  --------  --------  --------
 0 C  s               0.0       0.0       0.0       0.0       0.1       0.0
 0 C  pz             12.5       2.6       0.0       0.0       5.3       3.9
 0 C  px              9.7       1.4       1.6       4.8       1.0      14.4
 0 C  py              0.8       2.2       0.6       4.7       9.5       0.0
 0 C  dxz             0.1       0.0       0.0       0.1       0.1       0.1
 0 C  dyz             0.0       0.0       0.0       0.0       0.1       0.2
 0 C  dxy             0.0       0.0       0.0       0.1       0.0       0.2
 1 C  s               0.2       0.3       0.0       0.0       0.1       0.0
 1 C  pz              3.1       0.0       0.1       0.3       0.5       1.0
 1 C  px              3.7       0.0       0.1       0.1       0.0       5.7
 1 C  py              1.7       4.1       1.5       2.8       8.0       0.0
 1 C  dxy             0.0       0.0       0.0       0.1       0.0       0.1
 2 C  s               0.3       0.1       0.2       0.6       0.1       0.1
 2 C  pz              5.9       0.2       0.2       0.1       0.0       6.9
 2 C  px              1.3       0.2       0.0       0.4       0.6       0.0
 2 C  py              0.3       0.1       0.7       1.6       3.6       0.2
 2 C  dxy             0.0       0.3       0.0       0.0       0.0       0.0
 3 H  s               1.6       0.0       0.2       0.8       0.9       1.4
 4 C  s               0.0       0.0       0.0       0.1       0.1       0.0
 4 C  pz              4.2       3.0       3.1       8.8       0.7       8.4
 4 C  px              0.1      19.2       2.4       4.8       6.6       1.7
 4 C  py              6.2       2.5       0.3       3.1       3.8       0.0
 4 C  dxz             0.0       0.2       0.0       0.0       0.2       0.0
 4 C  dyz             0.0       0.0       0.0       0.1       0.1       0.1
 4 C  dx2y2           0.0       0.0       0.0       0.1       0.0       0.1
 5 C  s               0.0       0.2       0.0       0.2       0.0       0.0
 5 C  pz              1.5       2.3       0.5       0.4       0.1       1.6
 5 C  px              0.7       0.2       0.2       0.6       0.1       6.3
 5 C  py              0.0       2.1       3.9       1.1       0.1       0.4
 5 C  dx2y2           0.1       0.0       0.0       0.1       0.0       0.1
 6 C  pz              0.5       3.7      22.7       0.2       3.9       2.3
 6 C  px              2.4      16.2       2.8       0.3       4.9       1.7
 6 C  py              4.2       3.0       2.7       1.2       0.0       1.0
 6 C  dz2             0.0       0.0       0.2       0.0       0.0       0.0
 6 C  dxz             0.0       0.1       0.1       0.0       0.0       0.0
 6 C  dxy             0.0       0.0       0.0       0.0       0.1       0.0
 7 C  s               0.0       0.1       0.0       0.1       0.0       0.0
 7 C  pz              7.9       0.1      12.8      10.2       2.7       2.2
 7 C  px              0.3       2.3       7.3       9.4       2.2       3.6
 7 C  py              1.1       0.0       0.0       3.6       6.5       0.1
 7 C  dxz             0.0       0.0       0.0       0.2       0.1       0.0
 7 C  dyz             0.0       0.0       0.1       0.0       0.0       0.1
 7 C  dxy             0.0       0.0       0.0       0.1       0.0       0.0
 8 H  s               3.6       0.1       0.1       0.2       5.9       3.2
 8 H  px              0.1       0.0       0.0       0.0       0.0       0.1
 9 H  s               0.3       0.3       0.1       4.0       0.7       8.9
 9 H  pz              0.1       0.0       0.0       0.0       0.1       0.0
10 H  s               8.9       1.8       0.6       1.9       2.8       2.6
10 H  pz              0.0       0.0       0.0       0.0       0.0       0.2
10 H  px              0.2       0.0       0.0       0.0       0.1       0.0
11 H  s               0.9       0.1       0.0       0.1       2.8       0.8
12 H  s               0.4       0.3       0.2       1.5       0.9       3.2
13 H  s               4.1       1.8       0.4       7.8       1.6       3.4
13 H  px              0.0       0.2       0.0       0.0       0.0       0.0
14 H  s               0.3       8.7       0.1       0.0       3.5       0.4
15 H  s               0.0       4.3       2.7       4.6       2.5       3.9
15 H  pz              0.0       0.2       0.0       0.0       0.1       0.0
16 H  s               0.6       0.1       0.0       0.3       0.0       1.6
17 H  s               1.0       0.4      14.2       0.2       0.6       1.4
17 H  pz              0.0       0.0       0.2       0.0       0.0       0.0
17 H  px              0.0       0.1       0.0       0.0       0.1       0.0
18 H  s               2.6       1.4       1.9       0.8       2.1       0.0
18 H  pz              0.0       0.0       0.2       0.0       0.0       0.0
18 H  py              0.0       0.1       0.0       0.0       0.0       0.0
19 H  s               0.0      11.0       1.3       0.0       4.1       0.1
19 H  px              0.0       0.1       0.1       0.0       0.0       0.0
20 H  s               0.3       0.4       0.0      11.7       5.2       0.1
21 H  s               2.3       0.0       3.1       0.5       2.1       1.2
21 H  pz              0.0       0.0       0.0       0.1       0.1       0.0
21 H  py              0.1       0.0       0.2       0.0       0.0       0.0
22 H  s               2.0       0.5       8.5       3.2       1.2       2.9
22 H  pz              0.0       0.0       0.1       0.0       0.0       0.0
22 H  px              0.0       0.0       0.0       0.2       0.0       0.0

                     24        25        26        27        28        29   
                  -0.30028  -0.29482  -0.27112  -0.26547  -0.26074   0.09075
                   2.00000   2.00000   2.00000   2.00000   2.00000   0.00000
                  --------  --------  --------  --------  --------  --------
 0 C  s               0.4       0.1       0.4       0.0       0.0       3.4
 0 C  pz              0.0       9.0       0.5       1.5       0.6       0.1
 0 C  px              0.7       0.0       1.0       0.2       2.5       0.0
 0 C  py             11.6       0.3       3.8       1.2       0.0       1.6
 0 C  dxz             0.0       0.0       0.0       0.0       0.1       0.0
 0 C  dyz             0.0       0.3       0.0       0.1       0.0       0.0
 0 C  dx2y2           0.0       0.1       0.0       0.0       0.1       0.2
 0 C  dxy             0.0       0.1       0.0       0.0       0.1       0.0
 1 C  s               0.2       0.0       0.1       0.1       0.9       4.2
 1 C  pz              0.2      16.1       0.2       4.8       2.3       0.9
 1 C  px              0.2       0.5       0.8       0.3      15.2       1.5
 1 C  py             11.7       0.3       3.6       0.7       0.2       1.3
 1 C  dz2             0.1       0.0       0.2       0.1       0.0       0.0
 1 C  dxz             0.0       0.0       0.0       0.0       0.3       0.3
 1 C  dyz             0.1       0.3       0.1       0.0       0.0       0.0
 1 C  dx2y2           0.1       0.2       0.0       0.1       0.0       0.0
 1 C  dxy             0.1       0.1       0.1       0.1       0.1       0.0
 2 C  s               0.0       0.0       0.2       0.4       0.0       4.2
 2 C  pz              0.2       1.2       1.7      12.9       2.5       3.4
 2 C  px              0.2       2.6       2.0       3.3      16.7       0.4
 2 C  py              3.6       0.0      13.1       2.3       0.6       0.6
 2 C  dz2             0.0       0.0       0.2       0.1       0.0       0.0
 2 C  dxz             0.0       0.0       0.0       0.0       0.5       0.0
 2 C  dyz             0.1       0.0       0.6       0.0       0.0       0.2
 2 C  dx2y2           0.0       0.0       0.1       0.5       0.1       0.0
 3 H  s               1.4       0.4      10.1       4.0       1.2       2.0
 3 H  pz              0.0       0.0       0.1       0.0       0.0       0.7
 3 H  px              0.0       0.0       0.0       0.0       0.2       0.0
 3 H  py              0.0       0.0       0.0       0.1       0.0       0.3
 4 C  s               0.3       0.0       0.7       0.1       0.0       7.9
 4 C  pz              0.6       0.0       0.0       4.7       1.2       0.2
 4 C  px              1.3       4.6       0.6       0.1       2.4       0.0
 4 C  py              1.9       0.1      13.1       2.8       0.1       0.7
 4 C  dxz             0.0       0.1       0.0       0.0       0.2       0.0
 4 C  dyz             0.0       0.0       0.2       0.1       0.0       0.0
 4 C  dx2y2           0.0       0.0       0.0       0.1       0.0       0.2
 4 C  dxy             0.0       0.1       0.0       0.1       0.1       0.0
 5 C  s               0.0       0.1       0.0       0.4       0.1       5.7
 5 C  pz              0.4       7.2       1.4      13.2       0.7       3.7
 5 C  px              0.8       1.9       2.1       2.4      11.3       0.1
 5 C  py              8.2       0.3       8.1       4.3       1.5       1.5
 5 C  dz2             0.0       0.1       0.0       0.3       0.2       0.1
 5 C  dxz             0.0       0.1       0.1       0.3       0.0       0.2
 5 C  dyz             0.0       0.1       0.0       0.0       0.3       0.0
 5 C  dxy             0.2       0.0       0.4       0.1       0.0       0.1
 6 C  s               0.1       0.1       0.6       0.0       0.7       6.1
 6 C  pz              1.5       6.2       0.4       1.7       0.6       0.9
 6 C  px              4.0       0.5       0.2       0.3       4.9       0.6
 6 C  py              9.9       0.1       7.2       0.8       3.0       3.1
 6 C  dz2             0.0       0.2       0.0       0.2       0.0       0.0
 6 C  dxz             0.0       0.1       0.1       0.1       0.0       0.2
 6 C  dyz             0.0       0.0       0.0       0.0       0.1       0.3
 6 C  dxy             0.4       0.0       0.1       0.1       0.1       0.2
 7 C  s               0.4       0.1       0.4       0.1       0.2       9.7
 7 C  pz              1.3       1.5       1.5       2.9       0.3       0.1
 7 C  px              0.3       1.7       4.1       0.1       4.2       0.4
 7 C  py             11.4       0.0       7.0       0.8       0.1       0.5
 7 C  dxz             0.0       0.1       0.0       0.3       0.0       0.0
 7 C  dyz             0.1       0.1       0.0       0.0       0.1       0.0
 7 C  dx2y2           0.1       0.0       0.0       0.1       0.1       0.0
 7 C  dxy             0.1       0.0       0.1       0.0       0.0       0.3
 8 H  s               1.9       5.0       0.1       0.7       0.2       0.5
 8 H  pz              0.1       0.0       0.0       0.0       0.0       0.3
 9 H  s               0.3       2.4       0.0       1.2       1.0       1.1
 9 H  pz              0.0       0.0       0.0       0.0       0.0       0.1
 9 H  px              0.0       0.0       0.0       0.0       0.0       0.4
10 H  s               0.1       1.8       0.8       0.1       3.0       0.6
10 H  px              0.0       0.0       0.0       0.0       0.0       0.2
10 H  py              0.1       0.0       0.0       0.0       0.0       0.0
11 H  s               3.1       8.2       2.2       2.2       0.1       1.5
11 H  pz              0.1       0.0       0.0       0.0       0.0       0.3
11 H  px              0.0       0.0       0.0       0.0       0.2       0.4
12 H  s               0.7       5.1       0.0       3.2       4.0       1.1
12 H  pz              0.0       0.0       0.0       0.0       0.1       0.5
12 H  px              0.0       0.1       0.0       0.0       0.0       0.1
13 H  s               0.1       0.0       2.9       1.1       0.7       1.5
[...]
 5 C  dz2             4.8       4.1       0.0       0.0       0.0       0.0
 5 C  dxz             1.8       0.6       0.0       0.0       0.0       0.0
 5 C  dyz             0.4       3.6       0.0       0.0       0.0       0.0
 5 C  dx2y2           0.4       0.4       0.0       0.0       0.0       0.0
 5 C  dxy             0.7       0.2       0.0       0.0       0.0       0.0
 6 C  s               0.0       0.4       1.1      31.2      23.6      26.0
 6 C  pz              0.2       0.9       0.0       0.0       0.0       0.0
 6 C  px              0.7       0.7       0.0       0.0       0.0       0.0
 6 C  py              0.9       0.4       0.0       0.0       0.0       0.0
 6 C  dz2             2.5       1.3       0.0       0.0       0.0       0.0
 6 C  dxz             0.9       0.0       0.0       0.0       0.0       0.0
 6 C  dyz             0.1       1.9       0.0       0.0       0.0       0.0
 6 C  dx2y2           0.0       0.5       0.0       0.0       0.0       0.0
 6 C  dxy             1.3       0.0       0.0       0.0       0.0       0.0
 7 C  s               0.8       0.1      13.6      35.0       1.2       1.3
 7 C  pz              0.2       0.1       0.0       0.0       0.0       0.0
 7 C  px              3.2       0.4       0.0       0.0       0.0       0.0
 7 C  py              0.1       0.0       0.0       0.0       0.0       0.0
 7 C  dz2             1.0       0.8       0.0       0.0       0.0       0.0
 7 C  dyz             1.2       0.7       0.0       0.0       0.0       0.0
 7 C  dx2y2           0.2       0.2       0.0       0.0       0.0       0.0
 7 C  dxy             2.2       0.0       0.0       0.0       0.0       0.0
 9 H  s               0.1       0.0       0.0       0.0       0.0       0.0
 9 H  pz              0.3       0.1       0.0       0.0       0.0       0.0
 9 H  py              0.1       0.1       0.0       0.0       0.0       0.0
10 H  s               0.4       0.0       0.0       0.0       0.0       0.0
10 H  pz              0.2       0.1       0.0       0.0       0.0       0.0
10 H  px              0.7       0.1       0.0       0.0       0.0       0.0
11 H  s               0.6       1.4       0.0       0.0       0.0       0.0
11 H  pz              1.2       2.7       0.0       0.0       0.0       0.0
11 H  px              0.0       0.1       0.0       0.0       0.0       0.0
11 H  py              0.3       0.9       0.0       0.0       0.0       0.0
12 H  s               0.6       0.0       0.0       0.0       0.0       0.0
12 H  pz              0.2       0.1       0.0       0.0       0.0       0.0
12 H  px              0.8       0.0       0.0       0.0       0.0       0.0
12 H  py              0.4       0.0       0.0       0.0       0.0       0.0
13 H  s               0.0       0.4       0.0       0.0       0.0       0.0
13 H  pz              0.2       0.4       0.0       0.0       0.0       0.0
13 H  px              0.1       0.0       0.0       0.0       0.0       0.0
13 H  py              0.0       0.7       0.0       0.0       0.0       0.0
14 H  s               0.0       0.3       0.0       0.0       0.0       0.0
14 H  pz              0.1       0.5       0.0       0.0       0.0       0.0
14 H  px              0.0       0.3       0.0       0.0       0.0       0.0
15 H  s               1.1       0.1       0.0       0.0       0.0       0.0
15 H  pz              0.6       0.0       0.0       0.0       0.0       0.0
15 H  px              2.0       0.3       0.0       0.0       0.0       0.0
16 H  s               2.2       3.3       0.0       0.0       0.0       0.0
16 H  pz              5.6       6.5       0.0       0.0       0.0       0.0
16 H  px              0.6       0.6       0.0       0.0       0.0       0.0
16 H  py              0.0       1.2       0.0       0.0       0.0       0.0
17 H  s               0.9       0.7       0.0       0.0       0.0       0.0
17 H  pz              1.9       1.8       0.0       0.0       0.0       0.0
17 H  px              0.1       0.2       0.0       0.0       0.0       0.0
18 H  s               1.4       0.1       0.0       0.0       0.0       0.0
18 H  px              1.7       0.0       0.0       0.0       0.0       0.0
18 H  py              1.7       0.2       0.0       0.0       0.0       0.0
19 H  pz              0.0       0.2       0.0       0.0       0.0       0.0
20 H  s               1.0       0.0       0.0       0.0       0.0       0.0
20 H  pz              0.7       0.0       0.0       0.0       0.0       0.0
20 H  px              0.8       0.1       0.0       0.0       0.0       0.0
20 H  py              1.0       0.1       0.0       0.0       0.0       0.0
21 H  s               0.1       0.2       0.0       0.0       0.0       0.0
21 H  pz              0.2       0.2       0.0       0.0       0.0       0.0
21 H  py              0.1       0.3       0.0       0.0       0.0       0.0
22 H  s               0.1       0.4       0.0       0.0       0.0       0.0
22 H  pz              0.5       0.7       0.0       0.0       0.0       0.0
22 H  px              0.0       0.3       0.0       0.0       0.0       0.0
22 H  py              0.0       0.2       0.0       0.0       0.0       0.0

                    210       211       212   
                  22.07770  22.12749  22.18502
                   0.00000   0.00000   0.00000
                  --------  --------  --------
 0 C  s               0.3       0.1       0.1
 1 C  s               0.3      11.4      18.3
 2 C  s               5.1      58.1      25.3
 4 C  s              44.6       0.0       0.6
 5 C  s               0.1      21.7      47.1
 6 C  s               3.4       6.4       7.8
 7 C  s              45.9       2.0       0.6


                      *****************************
                      * MAYER POPULATION ANALYSIS *
                      *****************************

  NA   - Mulliken gross atomic population
  ZA   - Total nuclear charge
  QA   - Mulliken gross atomic charge
  VA   - Mayer's total valence
  BVA  - Mayer's bonded valence
  FA   - Mayer's free valence

  ATOM       NA         ZA         QA         VA         BVA        FA
  0 C      6.5428     6.0000    -0.5428     3.8096     3.8096    -0.0000
  1 C      6.2806     6.0000    -0.2806     3.6254     3.6254    -0.0000
  2 C      6.0295     6.0000    -0.0295     3.3679     3.3679    -0.0000
  3 H      0.8328     1.0000     0.1672     0.9583     0.9583    -0.0000
  4 C      6.5582     6.0000    -0.5582     3.7190     3.7190     0.0000
  5 C      6.0310     6.0000    -0.0310     3.4472     3.4472    -0.0000
  6 C      6.5470     6.0000    -0.5470     3.8018     3.8018    -0.0000
  7 C      6.5593     6.0000    -0.5593     3.7210     3.7210     0.0000
  8 H      0.8398     1.0000     0.1602     0.9591     0.9591    -0.0000
  9 H      0.8401     1.0000     0.1599     0.9587     0.9587    -0.0000
 10 H      0.8436     1.0000     0.1564     0.9585     0.9585    -0.0000
 11 H      0.8431     1.0000     0.1569     0.9587     0.9587    -0.0000
 12 H      0.8558     1.0000     0.1442     0.9622     0.9622    -0.0000
 13 H      0.8332     1.0000     0.1668     0.9588     0.9588     0.0000
 14 H      0.8420     1.0000     0.1580     0.9598     0.9598    -0.0000
 15 H      0.8431     1.0000     0.1569     0.9602     0.9602     0.0000
 16 H      0.8356     1.0000     0.1644     0.9555     0.9555    -0.0000
 17 H      0.8379     1.0000     0.1621     0.9598     0.9598    -0.0000
 18 H      0.8403     1.0000     0.1597     0.9590     0.9590     0.0000
 19 H      0.8477     1.0000     0.1523     0.9618     0.9618    -0.0000
 20 H      0.8432     1.0000     0.1568     0.9600     0.9600     0.0000
 21 H      0.8431     1.0000     0.1569     0.9603     0.9603     0.0000
 22 H      0.8304     1.0000     0.1696     0.9589     0.9589     0.0000

  Mayer bond orders larger than 0.100000
B(  0-C ,  1-C ) :   0.8805 B(  0-C ,  8-H ) :   0.9865 B(  0-C ,  9-H ) :   0.9716 
B(  0-C , 10-H ) :   0.9715 B(  1-C ,  2-C ) :   0.8678 B(  1-C , 11-H ) :   0.9760 
B(  1-C , 12-H ) :   0.9804 B(  2-C ,  3-H ) :   0.9945 B(  2-C ,  4-C ) :   0.8775 
B(  2-C ,  5-C ) :   0.8361 B(  4-C , 13-H ) :   0.9917 B(  4-C , 14-H ) :   0.9722 
B(  4-C , 15-H ) :   0.9712 B(  5-C ,  6-C ) :   0.8795 B(  5-C ,  7-C ) :   0.8817 
B(  5-C , 16-H ) :   0.9762 B(  6-C , 17-H ) :   0.9836 B(  6-C , 18-H ) :   0.9708 
B(  6-C , 19-H ) :   0.9763 B(  7-C , 20-H ) :   0.9694 B(  7-C , 21-H ) :   0.9707 
B(  7-C , 22-H ) :   0.9952 

-------
TIMINGS
-------

Total SCF time: 0 days 0 hours 0 min 21 sec 

Total time                  ....      21.349 sec
Sum of individual times     ....      20.933 sec  ( 98.1%)

SCF preparation             ....       0.306 sec  (  1.4%)
Fock matrix formation       ....      19.858 sec  ( 93.0%)
  Startup                   ....       0.045 sec  (  0.2% of F)
  Split-RI-J                ....       3.138 sec  ( 15.8% of F)
  XC integration            ....      12.212 sec  ( 61.5% of F)
    Basis function eval.    ....       2.354 sec  ( 19.3% of XC)
    Density eval.           ....       3.679 sec  ( 30.1% of XC)
    XC-Functional eval.     ....       1.482 sec  ( 12.1% of XC)
    XC-Potential eval.      ....       4.039 sec  ( 33.1% of XC)
  CPCM terms                ....       4.056 sec  ( 20.4% of F)
Diagonalization             ....       0.000 sec  (  0.0%)
Density matrix formation    ....       0.181 sec  (  0.8%)
Total Energy calculation    ....       0.034 sec  (  0.2%)
Population analysis         ....       0.123 sec  (  0.6%)
Orbital Transformation      ....       0.054 sec  (  0.3%)
Orbital Orthonormalization  ....       0.000 sec  (  0.0%)
DIIS solution               ....       0.326 sec  (  1.5%)
  MO trafo                  ....       0.000 sec  (  0.0 % of DIIS)
  Orb grad                  ....       0.000 sec  (  0.0 % of DIIS)
  Energy W gradient         ....       0.000 sec  (  0.0 % of DIIS)
  DIIS error                ....       0.007 sec  (  2.1 % of DIIS)
  DIIS work                 ....       0.278 sec  ( 85.3 % of DIIS)
  Form Q                    ....       0.000 sec  (  0.0 % of DIIS)
  Form QpQm                 ....       0.000 sec  (  0.0 % of DIIS)
  Exp/Cayley                ....       0.000 sec  (  0.0 % of DIIS)
  Orb update                ....       0.000 sec  (  0.0 % of DIIS)
  Wake-sleep                ....       0.013 sec  (  4.1 % of DIIS)
SOSCF solution              ....       0.049 sec  (  0.2%)
  MO trafo                  ....       0.038 sec  ( 76.9 % of SOSCF)
  Orb grad                  ....       0.001 sec  (  1.4 % of SOSCF)
  Rot update                ....       0.000 sec  (  0.1 % of SOSCF)
  Step                      ....       0.011 sec  ( 21.6 % of SOSCF)
Finished LeanSCF after  21.5 sec

Maximum memory used throughout the entire LEANSCF-calculation: 34.4 MB


-------------------------------------------------------------------------------
                          DFT DISPERSION CORRECTION                            
                                                                               
                                DFTD4 V3.4.0                                   
-------------------------------------------------------------------------------
The R2SCAN3C composite method is recognized
Using three-body term ABC
Active option DFTDOPT                   ...         5   

-------------------------   ----------------
Dispersion correction           -0.006541543
-------------------------   ----------------

------------------   -----------------
gCP correction             0.011199210
------------------   -----------------

-------------------------   --------------------
FINAL SINGLE POINT ENERGY      -276.277206994968
-------------------------   --------------------


------------------------------------------------------------------------------
                              ORCA PROPERTY CALCULATIONS
------------------------------------------------------------------------------

GBWName                                 ... sp_solv.gbw
Number of atoms                         ...     23
Number of basis functions               ...    213
Max core memory                         ...   1024 MB

Electric properties:
Dipole moment                           ... YES
Quadrupole moment                       ...  NO
Static polarizability (Dipole/Dipole)   ...  NO
Static polarizability (Dipole/Quad.)    ...  NO
Static polarizability (Quad./Quad.)     ...  NO
Static polarizability (Velocity)        ...  NO

Atomic electric properties:
Dipole moment                           ...  NO
Quadrupole moment                       ...  NO
Static polarizability                   ...  NO

Choice of electric origin               ... Center of mass
Position of electric origin             ...    -0.000001     0.000001    -0.000000

General magnetic properties:
Magnetizability                         ...  NO

EPR properties:
g-Tensor (aka g-matrix)                 ...  NO
Zero-Field splitting spin-orbit         ...  NO
Zero-field splitting spin-spin          ...  NO
Hyperfine couplings                     ...  NO (   0 nuclei)
Quadrupole couplings                    ...  NO (   0 nuclei)
Contact density                         ...  NO (   0 nuclei)

NMR properties:
Chemical shifts                         ...  NO (   0 nuclei)
Spin-rotation constants                 ...  NO (   0 nuclei)
Spin-spin couplings                     ...  NO (   0 nuclei,    0 pairs)

Choice of magnetic origin               ... GIAO
Position of magnetic origin             ...     0.000000     0.000000     0.000000

Properties with geometric perturbations:
SCF Hessian                             ...  NO
IR spectrum                             ...  NO
VCD spectrum                            ...  NO
X-ray spectroscopy properties:
SCF XES/XAS/RIXS spectra                ...  NO


-------------
DIPOLE MOMENT
-------------

Method             : SCF
Type of density    : Electron Density
Multiplicity       :   1
Irrep              :   0
Energy             :  -276.2818646617774334 Eh
Relativity type    : 
Basis              : AO
                                X                 Y                 Z
Electronic contribution:      0.447375194      -0.309749957       0.082240376
Nuclear contribution   :     -0.414856823       0.308165808      -0.060596234
                        -----------------------------------------
Total Dipole Moment    :      0.032518372      -0.001584149       0.021644142
                        -----------------------------------------
Magnitude (a.u.)       :      0.039095050
Magnitude (Debye)      :      0.099371720



--------------------
Rotational spectrum 
--------------------
 
Rotational constants in cm-1:             0.100243             0.064408             0.047477 
Rotational constants in MHz :          3005.205915          1930.889353          1423.316000 

Dipole components along the rotational axes: 
x,y,z [a.u.] :     0.033867    -0.003543     0.019207 
x,y,z [Debye]:     0.086083    -0.009007     0.048819 

 

Dipole moment calculation done in   0.0 sec 

Maximum memory used throughout the entire PROP-calculation: 13.5 MB

--------------------------------
SUGGESTED CITATIONS FOR THIS RUN
--------------------------------

Below you find a list of papers that are relevant to this ORCA run
We neither can nor want to force you to cite these papers, but we appreciate if you do
You receive ORCA, which is the product of decades of hard work by many enthusiastic individuals, for free
The only thing we kindly ask in return is that you cite our papers,
We deeply appreciate it, if you show your appreciation for ORCA by not just citing the generic ORCA reference.

Please note that relegating all ORCA citations to the supporting information does *not* help us.
SI sections are not indexed - citations you put there will not count into any citation statistics
But we need these citations in order to attract the funding resources that allow us to do what we are doing

Therefore, if you are a happy ORCA user, please consider citing a few of the papers listed below in the main body of your paper

In addition to the list printed below, the program has created the file sp_solv.bibtex that contains the list in bibtex format
You can import this file easily into all common literature databanks and citation aid programs


List of essential papers. We consider these as the minimum necessary citations

  1. Neese,F.
     Software update: the ORCA program system, version 5.0
     WIRES Comput. Molec. Sci., 2022 12(1)e1606
     doi.org/10.1002/wcms.1606
  2. Grimme,S.; Hansen,A.; Ehlert,S.; Mewes,J.
     r2SCAN-3c: A 'Swiss army knife' composite electronic-structure method
     J. Chem. Phys., 2021 154 064103
     doi.org/10.1063/5.0040021

List of papers to cite with high priority. The work reported in these papers was absolutely
necessary for this run to complete.
Our perspective: the developers of density functionals and basis sets usually get cited in chemistry papers
Good! But without the algorithms to do something with them, the functionals or basis sets would not do anything.
Hence, in our opinion, the algorithm design and method developments papers are equally worthy of getting cited

  1. Neese,F.
     An improvement of the resolution of the identity approximation for the formation of the Coulomb matrix
     J. Comp. Chem., 2003 24(14)1740-1747
     doi.org/10.1002/jcc.10318
  2. Garcia-Rates,M.; Neese,F.
     Effect of the Solute Cavity on the Solvation Energy and its Derivatives within the Framework of the Gaussian Charge Scheme
     J. Comput. Chem., 2020 41 922-939
     doi.org/10.1002/jcc.26139
  3. Neese,F.
     The SHARK Integral Generation and Digestion System
     J. Comp. Chem., 2022  1-16
     doi.org/10.1002/jcc.26942
  4. Lehtola,S.; Steigemann,C.; Oliveira,M.; Marques,M.
     Recent developments in Libxc - A comprehensive library of functionals for density functional theory
     Software X, 2018 7 
     doi.org/10.1016/j.softx.2017.11.002
  5. Caldeweyher,E.; Bannwarth,C.; Grimme,S.
     Extension of the D3 dispersion coefficient model
     J. Chem. Phys., 2017 147 034112-XXXX
     doi.org/10.1063/1.4993215
  6. Caldeweyher,E.; Ehlert,S.; Hansen,A.; Neugebauer,H.; Spicher,S.; Bannwarth,C.; Grimme,S.
     A generally applicable atomic-charge dependent London dispersion correction
     J. Chem. Phys., 2019 150 154122-XXXX
     doi.org/10.1063/1.5090222
  7. Caldeweyher,E.; Mewes,J.; Ehlert,S.; Grimme,S.
     Extension and evaluation of the D4 London-dispersion model for periodic systems
     Phys. Chem. Chem. Phys., 2020 22(16)8499-8512
     doi.org/10.1039/D0CP00502A

List of suggested additional citations. These are papers that are important in the 'surrounding' of 
of this run, or papers that preceded the highly important papers. If you like your results we are grateful for a citation.

  1. Neese,F.
     The ORCA program system
     WIRES Comput. Molec. Sci., 2012 2(1)73-78
     doi.org/10.1002/wcms.81
  2. Neese,F.
     Software update: the ORCA program system, version 4.0
     WIRES Comput. Molec. Sci., 2018 8(1)1-6
     doi.org/10.1002/wcms.1327
  3. Neese,F.; Wennmohs,F.; Becker,U.; Riplinger,C.
     The ORCA quantum chemistry program package
     J. Chem. Phys., 2020 152 Art. No. L224108
     doi.org/10.1063/5.0004608

List of optional additional citations

  1. Neese,F.
     Approximate second-order SCF convergence for spin unrestricted wavefunctions
     Chem. Phys. Lett., 2000 325(1-3)93-98
     doi.org/10.1016/s0009-2614(00)00662-x

Timings for individual modules:

Sum of individual times          ...       23.194 sec (=   0.387 min)
Startup calculation              ...        1.260 sec (=   0.021 min)   5.4 %
SCF iterations                   ...       21.834 sec (=   0.364 min)  94.1 %
Property calculations            ...        0.100 sec (=   0.002 min)   0.4 %
                             ****ORCA TERMINATED NORMALLY****
TOTAL RUN TIME: 0 days 0 hours 0 minutes 23 seconds 951 msec
