      -----------------------------------------------------------      
     |                   =====================                   |     
     |                           x T B                           |     
     |                   =====================                   |     
     |                         S. Grimme                         |     
     |          Mulliken Center for Theoretical Chemistry        |     
     |                    University of Bonn                     |     
      -----------------------------------------------------------      

   * xtb version 6.7.1 (edcfbbe) compiled by 'albert@albert-system' on 2024-07-22

   xtb is free software: you can redistribute it and/or modify it under
   the terms of the GNU Lesser General Public License as published by
   the Free Software Foundation, either version 3 of the License, or
   (at your option) any later version.
   
   xtb is distributed in the hope that it will be useful,
   but WITHOUT ANY WARRANTY; without even the implied warranty of
   MERCHANTABILITY or FITNESS FOR A PARTICULAR PURPOSE.  See the
   GNU Lesser General Public License for more details.
   
   Cite this work as:
   * C. Bannwarth, E. Caldeweyher, S. Ehlert, A. Hansen, P. Pracht,
     J. Seibert, S. Spicher, S. Grimme, WIREs Comput. Mol. Sci., 2020, 11,
     e01493. DOI: 10.1002/wcms.1493
   
   for GFN2-xTB:
   * C. Bannwarth, S. Ehlert and S. Grimme., J. Chem. Theory Comput., 2019,
     15, 1652-1671. DOI: 10.1021/acs.jctc.8b01176
   for GFN1-xTB:
   * S. Grimme, C. Bannwarth, P. Shushkov, J. Chem. Theory Comput., 2017,
     13, 1989-2009. DOI: 10.1021/acs.jctc.7b00118
   for GFN0-xTB:
   * P. Pracht, E. Caldeweyher, S. Ehlert, S. Grimme, ChemRxiv, 2019, preprint.
     DOI: 10.26434/chemrxiv.8326202.v1
   for GFN-FF:
   * S. Spicher and S. Grimme, Angew. Chem. Int. Ed., 2020, 59, 15665-15673.
     DOI: 10.1002/anie.202004239
   
   for ALPB and GBSA implicit solvation:
   * S. Ehlert, M. Stahn, S. Spicher, S. Grimme, J. Chem. Theory Comput.,
     2021, 17, 4250-4261. DOI: 10.1021/acs.jctc.1c00471
   
   for ddCOSMO and CPCM-X implicit solvation:
   * M. Stahn, S. Ehlert, S. Grimme, J. Phys. Chem. A,
     2023, XX, XXXX-XXXX. DOI: 10.1021/acs.jpca.3c04382
   
   for DFT-D4:
   * E. Caldeweyher, C. Bannwarth and S. Grimme, J. Chem. Phys., 2017,
     147, 034112. DOI: 10.1063/1.4993215
   * E. Caldeweyher, S. Ehlert, A. Hansen, H. Neugebauer, S. Spicher,
     C. Bannwarth and S. Grimme, J. Chem. Phys., 2019, 150, 154122.
     DOI: 10.1063/1.5090222
   * E. Caldeweyher, J.-M. Mewes, S. Ehlert and S. Grimme, Phys. Chem. Chem. Phys.
     2020, 22, 8499-8512. DOI: 10.1039/D0CP00502A
   
   for sTDA-xTB:
   * S. Grimme and C. Bannwarth, J. Chem. Phys., 2016, 145, 054103.
     DOI: 10.1063/1.4959605
   
   in the mass-spec context:
   * V. Asgeirsson, C. Bauer and S. Grimme, Chem. Sci., 2017, 8, 4879.
     DOI: 10.1039/c7sc00601b
   * J. Koopman and S. Grimme, ACS Omega 2019, 4, 12, 15120-15133.
     DOI: 10.1021/acsomega.9b02011
   
   for metadynamics refer to:
   * S. Grimme, J. Chem. Theory Comput., 2019, 155, 2847-2862
     DOI: 10.1021/acs.jctc.9b00143
   
   for SPH calculations refer to:
   * S. Spicher and S. Grimme, J. Chem. Theory Comput., 2021, 17, 1701-1714
     DOI: 10.1021/acs.jctc.0c01306
   
   for ONIOM refer to:
   * C. Plett, A. Katbashev, S. Ehlert, S. Grimme, M. Bursch,
     Phys. Chem. Chem. Phys., 2023, 25, 17860-17868. DOI: 10.1039/D3CP02178E
   
   for DIPRO refer to:
   * J. Kohn, N. Gildemeister, S. Grimme, D. Fazzi, A. Hansen,
     J. Chem. Phys., 2023, just accepted.
   
   for PTB refer to:
   * S. Grimme, M. Mueller, A. Hansen, J. Chem. Phys., 2023, 158, 124111.
     DOI: 10.1063/5.0137838
   
   with help from (in alphabetical order)
   P. Atkinson, C. Bannwarth, F. Bohle, G. Brandenburg, E. Caldeweyher
   M. Checinski, S. Dohm, S. Ehlert, S. Ehrlich, I. Gerasimov, C. Hölzer
   A. Katbashev, J. Kohn, J. Koopman, C. Lavigne, S. Lehtola, F. März, M. Müller,
   F. Musil, H. Neugebauer, J. Pisarek, C. Plett, P. Pracht, F. Pultar,
   J. Seibert, P. Shushkov, S. Spicher, M. Stahn, M. Steiner, T. Strunk,
   J. Stückrath, T. Rose, and J. Unsleber
   
 * started run on 2025/04/11 at 11:19:24.575     
   ID    Z sym.   atoms
    1    6 C      1-3
    2    8 O      4-6
    3    1 H      7-14

           -------------------------------------------------
          |                Calculation Setup                |
           -------------------------------------------------

          program call               : /srv/scratch/z5358697/.xtb/bin/xtb gas.coord --gfn2 --sp --chrg 0 --norestart --parallel 1
          hostname                   : k022
          coordinate file            : gas.coord
          omp threads                :                     1


           -------------------------------------------------
          |                 G F N 2 - x T B                 |
           -------------------------------------------------

        Reference                      10.1021/acs.jctc.8b01176
      * Hamiltonian:
        H0-scaling (s, p, d)           1.850000    2.230000    2.230000
        zeta-weighting                 0.500000
      * Dispersion:
        s8                             2.700000
        a1                             0.520000
        a2                             5.000000
        s9                             5.000000
      * Repulsion:
        kExp                           1.500000    1.000000
        rExp                           1.000000
      * Coulomb:
        alpha                          2.000000
        third order                    shell-resolved
        anisotropic                    true
        a3                             3.000000
        a5                             4.000000
        cn-shift                       1.200000
        cn-exp                         4.000000
        max-rad                        5.000000


          ...................................................
          :                      SETUP                      :
          :.................................................:
          :  # basis functions                  32          :
          :  # atomic orbitals                  32          :
          :  # shells                           20          :
          :  # electrons                        38          :
          :  max. iterations                   250          :
          :  Hamiltonian                  GFN2-xTB          :
          :  restarted?                      false          :
          :  GBSA solvation                  false          :
          :  PC potential                    false          :
          :  electronic temp.          300.0000000     K    :
          :  accuracy                    1.0000000          :
          :  -> integral cutoff          0.2500000E+02      :
          :  -> integral neglect         0.1000000E-07      :
          :  -> SCF convergence          0.1000000E-05 Eh   :
          :  -> wf. convergence          0.1000000E-03 e    :
          :  Broyden damping             0.4000000          :
          :  net charge                          0          :
          :  unpaired electrons                  0          :
          ...................................................

 iter      E             dE          RMSdq      gap      omega  full diag
   1    -22.8184244 -0.228184E+02  0.446E+00   11.75       0.0  T
   2    -22.8432861 -0.248617E-01  0.238E+00   11.50       1.0  T
   3    -22.8441096 -0.823515E-03  0.731E-01   11.54       1.0  T
   4    -22.8443145 -0.204838E-03  0.134E-01   11.55       1.0  T
   5    -22.8443319 -0.174150E-04  0.408E-02   11.58       1.0  T
   6    -22.8443383 -0.645505E-05  0.184E-02   11.57       1.5  T
   7    -22.8443388 -0.421816E-06  0.535E-03   11.57       5.0  T
   8    -22.8443389 -0.108856E-06  0.187E-03   11.57      14.3  T
   9    -22.8443389 -0.205093E-08  0.403E-04   11.57      66.3  T
  10    -22.8443389 -0.607159E-09  0.212E-04   11.57     126.2  T

   *** convergence criteria satisfied after 10 iterations ***

         #    Occupation            Energy/Eh            Energy/eV
      -------------------------------------------------------------
         1        2.0000           -0.7015983             -19.0915
       ...           ...                  ...                  ...
        13        2.0000           -0.5121019             -13.9350
        14        2.0000           -0.4952349             -13.4760
        15        2.0000           -0.4829138             -13.1408
        16        2.0000           -0.4505252             -12.2594
        17        2.0000           -0.4416230             -12.0172
        18        2.0000           -0.4178201             -11.3695
        19        2.0000           -0.4124812             -11.2242 (HOMO)
        20                          0.0128282               0.3491 (LUMO)
        21                          0.0257790               0.7015
        22                          0.0603695               1.6427
        23                          0.0747289               2.0335
        24                          0.1052523               2.8641
       ...                                ...                  ...
        32                          0.2625469               7.1443
      -------------------------------------------------------------
                  HL-Gap            0.4253094 Eh           11.5733 eV
             Fermi-level           -0.1998265 Eh           -5.4376 eV

 SCC (total)                   0 d,  0 h,  0 min,  0.014 sec
 SCC setup                      ...        0 min,  0.000 sec (  1.232%)
 Dispersion                     ...        0 min,  0.000 sec (  0.455%)
 classical contributions        ...        0 min,  0.000 sec (  0.115%)
 integral evaluation            ...        0 min,  0.001 sec (  7.405%)
 iterations                     ...        0 min,  0.010 sec ( 68.525%)
 molecular gradient             ...        0 min,  0.003 sec ( 21.148%)
 printout                       ...        0 min,  0.000 sec (  1.023%)

         :::::::::::::::::::::::::::::::::::::::::::::::::::::
         ::                     SUMMARY                     ::
         :::::::::::::::::::::::::::::::::::::::::::::::::::::
         :: total energy             -22.670300793157 Eh    ::
         :: gradient norm              0.010887322243 Eh/a0 ::
         :: HOMO-LUMO gap             11.573258623293 eV    ::
         ::.................................................::
         :: SCC energy               -22.844327135683 Eh    ::
         :: -> isotropic ES            0.070910827501 Eh    ::
         :: -> anisotropic ES          0.004035861859 Eh    ::
         :: -> anisotropic XC         -0.003064243810 Eh    ::
         :: -> dispersion             -0.007078951704 Eh    ::
         :: repulsion energy           0.174026342526 Eh    ::
         :: add. restraining           0.000000000000 Eh    ::
         :: total charge              -0.000000000000 e     ::
         :::::::::::::::::::::::::::::::::::::::::::::::::::::

           -------------------------------------------------
          |                Property Printout                |
           -------------------------------------------------

    * Orbital Energies and Occupations

         #    Occupation            Energy/Eh            Energy/eV
      -------------------------------------------------------------
         1        2.0000           -0.7015983             -19.0915
       ...           ...                  ...                  ...
         7        2.0000           -0.5910966             -16.0846
         8        2.0000           -0.5712657             -15.5449
         9        2.0000           -0.5693442             -15.4926
        10        2.0000           -0.5572598             -15.1638
        11        2.0000           -0.5292890             -14.4027
        12        2.0000           -0.5220537             -14.2058
        13        2.0000           -0.5121019             -13.9350
        14        2.0000           -0.4952349             -13.4760
        15        2.0000           -0.4829138             -13.1408
        16        2.0000           -0.4505252             -12.2594
        17        2.0000           -0.4416230             -12.0172
        18        2.0000           -0.4178201             -11.3695
        19        2.0000           -0.4124812             -11.2242 (HOMO)
        20                          0.0128282               0.3491 (LUMO)
        21                          0.0257790               0.7015
        22                          0.0603695               1.6427
        23                          0.0747289               2.0335
        24                          0.1052523               2.8641
        25                          0.1147020               3.1212
        26                          0.1364762               3.7137
        27                          0.1621860               4.4133
        28                          0.1815667               4.9407
        29                          0.2007519               5.4627
        30                          0.2326627               6.3311
       ...                                ...                  ...
        32                          0.2625469               7.1443
      -------------------------------------------------------------
                  HL-Gap            0.4253094 Eh           11.5733 eV
             Fermi-level           -0.1998265 Eh           -5.4376 eV

     #   Z          covCN         q      C6AA      α(0)
     1   6 C        3.675     0.075    19.556     6.337
     2   6 C        3.720     0.094    19.139     6.248
     3   6 C        3.673     0.062    19.764     6.371
     4   8 O        1.655    -0.428    21.400     6.245
     5   8 O        1.656    -0.427    21.386     6.243
     6   8 O        1.655    -0.424    21.320     6.233
     7   1 H        0.923     0.017     2.786     2.610
     8   1 H        0.924     0.071     2.080     2.255
     9   1 H        0.923     0.014     2.831     2.631
    10   1 H        0.924     0.020     2.726     2.582
    11   1 H        0.924     0.053     2.287     2.365
    12   1 H        0.805     0.292     0.744     1.355
    13   1 H        0.805     0.295     0.736     1.347
    14   1 H        0.805     0.287     0.760     1.369

 Mol. C6AA /au·bohr⁶  :       1410.049461
 Mol. C8AA /au·bohr⁸  :      28821.947700
 Mol. α(0) /au        :         54.192656


Wiberg/Mayer (AO) data.
largest (>0.10) Wiberg bond orders for each atom

 ---------------------------------------------------------------------------
     #   Z sym  total        # sym  WBO       # sym  WBO       # sym  WBO
 ---------------------------------------------------------------------------
     1   6 C    3.961 --     6 O    1.011     2 C    0.979     7 H    0.968
                             8 H    0.968
     2   6 C    3.963 --     5 O    1.002     1 C    0.979     3 C    0.970
                             9 H    0.955
     3   6 C    3.961 --     4 O    1.012     2 C    0.970    11 H    0.970
                            10 H    0.968
     4   8 O    1.972 --     3 C    1.012    12 H    0.899
     5   8 O    1.969 --     2 C    1.002    13 H    0.895
     6   8 O    1.972 --     1 C    1.011    14 H    0.901
     7   1 H    1.000 --     1 C    0.968
     8   1 H    0.995 --     1 C    0.968
     9   1 H    1.000 --     2 C    0.955
    10   1 H    1.000 --     3 C    0.968
    11   1 H    0.997 --     3 C    0.970
    12   1 H    0.914 --     4 O    0.899
    13   1 H    0.913 --     5 O    0.895
    14   1 H    0.917 --     6 O    0.901
 ---------------------------------------------------------------------------

Topologies differ in total number of bonds
Writing topology from bond orders to xtbtopo.mol

molecular dipole:
                 x           y           z       tot (Debye)
 q only:        0.123      -0.548       0.674
   full:        0.165      -0.789       1.024       3.314
molecular quadrupole (traceless):
                xx          xy          yy          xz          yz          zz
 q only:       -4.810       3.247       0.907      -1.612       2.364       3.902
  q+dip:       -7.651       5.053       1.832      -1.819       3.448       5.820
   full:       -7.282       4.905       1.518      -2.078       3.431       5.765


           -------------------------------------------------
          | TOTAL ENERGY              -22.670300793157 Eh   |
          | GRADIENT NORM               0.010887322243 Eh/α |
          | HOMO-LUMO GAP              11.573258623293 eV   |
           -------------------------------------------------

------------------------------------------------------------------------
 * finished run on 2025/04/11 at 11:19:24.620     
------------------------------------------------------------------------
 total:
 * wall-time:     0 d,  0 h,  0 min,  0.044 sec
 *  cpu-time:     0 d,  0 h,  0 min,  0.016 sec
 * ratio c/w:     0.360 speedup
 SCF:
 * wall-time:     0 d,  0 h,  0 min,  0.014 sec
 *  cpu-time:     0 d,  0 h,  0 min,  0.009 sec
 * ratio c/w:     0.644 speedup

