      -----------------------------------------------------------      
     |                   =====================                   |     
     |                           x T B                           |     
     |                   =====================                   |     
     |                         S. Grimme                         |     
     |          Mulliken Center for Theoretical Chemistry        |     
     |                    University of Bonn                     |     
      -----------------------------------------------------------      

   * xtb version 6.7.1 (edcfbbe) compiled by 'albert@albert-system' on 2024-07-22

   xtb is free software: you can redistribute it and/or modify it under
   the terms of the GNU Lesser General Public License as published by
   the Free Software Foundation, either version 3 of the License, or
   (at your option) any later version.
   
   xtb is distributed in the hope that it will be useful,
   but WITHOUT ANY WARRANTY; without even the implied warranty of
   MERCHANTABILITY or FITNESS FOR A PARTICULAR PURPOSE.  See the
   GNU Lesser General Public License for more details.
   
   Cite this work as:
   * C. Bannwarth, E. Caldeweyher, S. Ehlert, A. Hansen, P. Pracht,
     J. Seibert, S. Spicher, S. Grimme, WIREs Comput. Mol. Sci., 2020, 11,
     e01493. DOI: 10.1002/wcms.1493
   
   for GFN2-xTB:
   * C. Bannwarth, S. Ehlert and S. Grimme., J. Chem. Theory Comput., 2019,
     15, 1652-1671. DOI: 10.1021/acs.jctc.8b01176
   for GFN1-xTB:
   * S. Grimme, C. Bannwarth, P. Shushkov, J. Chem. Theory Comput., 2017,
     13, 1989-2009. DOI: 10.1021/acs.jctc.7b00118
   for GFN0-xTB:
   * P. Pracht, E. Caldeweyher, S. Ehlert, S. Grimme, ChemRxiv, 2019, preprint.
     DOI: 10.26434/chemrxiv.8326202.v1
   for GFN-FF:
   * S. Spicher and S. Grimme, Angew. Chem. Int. Ed., 2020, 59, 15665-15673.
     DOI: 10.1002/anie.202004239
   
   for ALPB and GBSA implicit solvation:
   * S. Ehlert, M. Stahn, S. Spicher, S. Grimme, J. Chem. Theory Comput.,
     2021, 17, 4250-4261. DOI: 10.1021/acs.jctc.1c00471
   
   for ddCOSMO and CPCM-X implicit solvation:
   * M. Stahn, S. Ehlert, S. Grimme, J. Phys. Chem. A,
     2023, XX, XXXX-XXXX. DOI: 10.1021/acs.jpca.3c04382
   
   for DFT-D4:
   * E. Caldeweyher, C. Bannwarth and S. Grimme, J. Chem. Phys., 2017,
     147, 034112. DOI: 10.1063/1.4993215
   * E. Caldeweyher, S. Ehlert, A. Hansen, H. Neugebauer, S. Spicher,
     C. Bannwarth and S. Grimme, J. Chem. Phys., 2019, 150, 154122.
     DOI: 10.1063/1.5090222
   * E. Caldeweyher, J.-M. Mewes, S. Ehlert and S. Grimme, Phys. Chem. Chem. Phys.
     2020, 22, 8499-8512. DOI: 10.1039/D0CP00502A
   
   for sTDA-xTB:
   * S. Grimme and C. Bannwarth, J. Chem. Phys., 2016, 145, 054103.
     DOI: 10.1063/1.4959605
   
   in the mass-spec context:
   * V. Asgeirsson, C. Bauer and S. Grimme, Chem. Sci., 2017, 8, 4879.
     DOI: 10.1039/c7sc00601b
   * J. Koopman and S. Grimme, ACS Omega 2019, 4, 12, 15120-15133.
     DOI: 10.1021/acsomega.9b02011
   
   for metadynamics refer to:
   * S. Grimme, J. Chem. Theory Comput., 2019, 155, 2847-2862
     DOI: 10.1021/acs.jctc.9b00143
   
   for SPH calculations refer to:
   * S. Spicher and S. Grimme, J. Chem. Theory Comput., 2021, 17, 1701-1714
     DOI: 10.1021/acs.jctc.0c01306
   
   for ONIOM refer to:
   * C. Plett, A. Katbashev, S. Ehlert, S. Grimme, M. Bursch,
     Phys. Chem. Chem. Phys., 2023, 25, 17860-17868. DOI: 10.1039/D3CP02178E
   
   for DIPRO refer to:
   * J. Kohn, N. Gildemeister, S. Grimme, D. Fazzi, A. Hansen,
     J. Chem. Phys., 2023, just accepted.
   
   for PTB refer to:
   * S. Grimme, M. Mueller, A. Hansen, J. Chem. Phys., 2023, 158, 124111.
     DOI: 10.1063/5.0137838
   
   with help from (in alphabetical order)
   P. Atkinson, C. Bannwarth, F. Bohle, G. Brandenburg, E. Caldeweyher
   M. Checinski, S. Dohm, S. Ehlert, S. Ehrlich, I. Gerasimov, C. Hölzer
   A. Katbashev, J. Kohn, J. Koopman, C. Lavigne, S. Lehtola, F. März, M. Müller,
   F. Musil, H. Neugebauer, J. Pisarek, C. Plett, P. Pracht, F. Pultar,
   J. Seibert, P. Shushkov, S. Spicher, M. Stahn, M. Steiner, T. Strunk,
   J. Stückrath, T. Rose, and J. Unsleber
   
 * started run on 2025/04/11 at 12:17:52.136     
   ID    Z sym.   atoms
    1    6 C      1-5
    2    8 O      6
    3    1 H      7-18

           -------------------------------------------------
          |                Calculation Setup                |
           -------------------------------------------------

          program call               : /srv/scratch/z5358697/.xtb/bin/xtb xtb_rrho.coord --gfn2 --ohess vtight --chrg 0 --enso --norestart -I rrho-xcontrol-inp --parallel 1 --alpb water
          hostname                   : k071
          coordinate file            : xtb_rrho.coord
          omp threads                :                     1


           -------------------------------------------------
          |                 G F N 2 - x T B                 |
           -------------------------------------------------

        Reference                      10.1021/acs.jctc.8b01176
      * Hamiltonian:
        H0-scaling (s, p, d)           1.850000    2.230000    2.230000
        zeta-weighting                 0.500000
      * Dispersion:
        s8                             2.700000
        a1                             0.520000
        a2                             5.000000
        s9                             5.000000
      * Repulsion:
        kExp                           1.500000    1.000000
        rExp                           1.000000
      * Coulomb:
        alpha                          2.000000
        third order                    shell-resolved
        anisotropic                    true
        a3                             3.000000
        a5                             4.000000
        cn-shift                       1.200000
        cn-exp                         4.000000
        max-rad                        5.000000

      * Solvation model:               ALPB
        Solvent                        water
        Parameter file                 internal GFN2-xTB/ALPB
        Dielectric constant                8.0200E+01
        Reference state                gsolv [1 M gas/solution]
        Free energy shift                  1.0808E-03 Eh       6.7819E-01 kcal/mol
        Temperature                        2.9815E+02 K
        Density                            1.0000E+00 kg/L
        Solvent mass                       1.8000E+01 g/mol
        Interaction kernel             P16
        Born radius scaling (c1)           1.4744E+00
        Born radii integrator          GBOBC
        Born offset                        0.0000E+00 a0       0.0000E+00 AA
        H-bond correction              true
        Ion screening                  false
        Surface tension                    1.0000E-05 Eh       1.5569E+01 dyn/cm
        Grid points                               974 per atom

          ...................................................
          :                      SETUP                      :
          :.................................................:
          :  # basis functions                  36          :
          :  # atomic orbitals                  36          :
          :  # shells                           24          :
          :  # electrons                        38          :
          :  max. iterations                   250          :
          :  Hamiltonian                  GFN2-xTB          :
          :  restarted?                      false          :
          :  GBSA solvation                   true          :
          :  PC potential                    false          :
          :  electronic temp.          300.0000000     K    :
          :  accuracy                    1.0000000          :
          :  -> integral cutoff          0.2500000E+02      :
          :  -> integral neglect         0.1000000E-07      :
          :  -> SCF convergence          0.1000000E-05 Eh   :
          :  -> wf. convergence          0.1000000E-03 e    :
          :  Broyden damping             0.4000000          :
          :  net charge                          0          :
          :  unpaired electrons                  0          :
          ...................................................

 iter      E             dE          RMSdq      gap      omega  full diag
   1    -21.1147383 -0.211147E+02  0.299E+00   11.65       0.0  T
   2    -21.1457433 -0.310049E-01  0.154E+00   11.44       1.0  T
   3    -21.1465644 -0.821102E-03  0.602E-01   11.45       1.0  T
   4    -21.1467614 -0.197073E-03  0.123E-01   11.44       1.0  T
   5    -21.1468146 -0.531470E-04  0.645E-02   11.46       1.0  T
   6    -21.1468169 -0.233797E-05  0.108E-02   11.46       2.2  T
   7    -21.1468172 -0.284049E-06  0.512E-03   11.46       4.6  T
   8    -21.1468173 -0.572224E-07  0.198E-03   11.46      11.9  T
   9    -21.1468173 -0.501757E-08  0.411E-04   11.46      57.3  T
  10    -21.1468173 -0.791601E-09  0.153E-04   11.46     154.1  T

   *** convergence criteria satisfied after 10 iterations ***

         #    Occupation            Energy/Eh            Energy/eV
      -------------------------------------------------------------
         1        2.0000           -0.6808132             -18.5259
       ...           ...                  ...                  ...
        13        2.0000           -0.4619260             -12.5696
        14        2.0000           -0.4556364             -12.3985
        15        2.0000           -0.4524938             -12.3130
        16        2.0000           -0.4337651             -11.8034
        17        2.0000           -0.4298501             -11.6968
        18        2.0000           -0.4226278             -11.5003
        19        2.0000           -0.4044240             -11.0049 (HOMO)
        20                          0.0166669               0.4535 (LUMO)
        21                          0.0861443               2.3441
        22                          0.0918325               2.4989
        23                          0.1194537               3.2505
        24                          0.1259539               3.4274
       ...                                ...                  ...
        36                          0.2913357               7.9276
      -------------------------------------------------------------
                  HL-Gap            0.4210908 Eh           11.4585 eV
             Fermi-level           -0.1938786 Eh           -5.2757 eV

 SCC (total)                   0 d,  0 h,  0 min,  0.010 sec
 SCC setup                      ...        0 min,  0.001 sec ( 10.310%)
 Dispersion                     ...        0 min,  0.000 sec (  0.826%)
 classical contributions        ...        0 min,  0.000 sec (  0.185%)
 integral evaluation            ...        0 min,  0.001 sec ( 11.330%)
 iterations                     ...        0 min,  0.005 sec ( 44.273%)
 molecular gradient             ...        0 min,  0.003 sec ( 31.749%)
 printout                       ...        0 min,  0.000 sec (  1.212%)

         :::::::::::::::::::::::::::::::::::::::::::::::::::::
         ::                     SUMMARY                     ::
         :::::::::::::::::::::::::::::::::::::::::::::::::::::
         :: total energy             -20.893654367374 Eh    ::
         :: total w/o Gsasa/hb       -20.890043405031 Eh    ::
         :: gradient norm              0.028665681348 Eh/a0 ::
         :: HOMO-LUMO gap             11.458465061276 eV    ::
         ::.................................................::
         :: SCC energy               -21.146780244560 Eh    ::
         :: -> isotropic ES            0.037453211806 Eh    ::
         :: -> anisotropic ES          0.004668301674 Eh    ::
         :: -> anisotropic XC          0.008441092180 Eh    ::
         :: -> dispersion             -0.010214643545 Eh    ::
         :: -> Gsolv                  -0.008127186242 Eh    ::
         ::    -> Gelec               -0.004516223899 Eh    ::
         ::    -> Gsasa                0.000324491832 Eh    ::
         ::    -> Ghb                 -0.005016213872 Eh    ::
         ::    -> Gshift               0.001080759698 Eh    ::
         :: repulsion energy           0.253125877186 Eh    ::
         :: add. restraining           0.000000000000 Eh    ::
         :: total charge               0.000000000000 e     ::
         :::::::::::::::::::::::::::::::::::::::::::::::::::::

      ----------------------------------------------------------- 
     |                   =====================                   |
     |                        A N C O P T                        |
     |                   =====================                   |
     |               Approximate Normal Coordinate               |
     |                Rational Function Optimizer                |
      ----------------------------------------------------------- 
      ----------------------------------------------------------- 
     |                   =====================                   |
     |                        A N C O P T                        |
     |                   =====================                   |
     |               Approximate Normal Coordinate               |
     |                Rational Function Optimizer                |
      ----------------------------------------------------------- 

          ...................................................
          :                      SETUP                      :
          :.................................................:
          :   optimization level         verytight          :
          :   max. optcycles                   360          :
          :   ANC micro-cycles                  20          :
          :   degrees of freedom                48          :
          :.................................................:
          :   RF solver                   davidson          :
          :   write xtbopt.log                true          :
          :   linear?                        false          :
          :   energy convergence         0.1000000E-06 Eh   :
          :   grad. convergence          0.2000000E-03 Eh/α :
          :   maxmium RF displ.          1.0000000          :
          :   Hlow (freq-cutoff)         0.1000000E-01      :
          :   Hmax (freq-cutoff)         5.0000000          :
          :   S6 in model hess.         20.0000000          :
          ...................................................

generating ANC from exact Hessian ...
Using Lindh-Hessian (1995)
 Shifting diagonal of input Hessian by   7.632673479216829E-003
 Lowest  eigenvalues of input Hessian
    0.000000    0.000000    0.000000    0.000000    0.000000    0.000000
    0.010000    0.012171    0.012759    0.015638    0.017401    0.018460
    0.027351    0.033913    0.039253    0.046885    0.050852    0.058384
 Highest eigenvalues
    1.152144    1.161629    1.251114    1.256787    1.299633    1.403120
 

........................................................................
.............................. CYCLE    1 ..............................
........................................................................

 iter      E             dE          RMSdq      gap      omega  full diag
   1    -21.1468173 -0.211468E+02  0.657E-05   11.46       0.0  T
   2    -21.1468173 -0.743938E-11  0.412E-05   11.46     572.0  T
   3    -21.1468173 -0.225953E-11  0.166E-05   11.46    1417.9  T
     SCC iter.                  ...        0 min,  0.001 sec
     gradient                   ...        0 min,  0.004 sec
 * total energy  :   -20.8936544 Eh     change       -0.3521095E-10 Eh
   gradient norm :     0.0286656 Eh/α   predicted     0.0000000E+00 (-100.00%)
   displ. norm   :     0.0965438 α      lambda       -0.1269050E-02
   maximum displ.:     0.0382037 α      in ANC's #19, #12, #13, ...

........................................................................
.............................. CYCLE    2 ..............................
........................................................................

 iter      E             dE          RMSdq      gap      omega  full diag
   1    -21.1544676 -0.211545E+02  0.962E-02   11.72       0.0  T
   2    -21.1544752 -0.762988E-05  0.547E-02   11.72       1.0  T
   3    -21.1544754 -0.207108E-06  0.128E-02   11.72       1.8  T
   4    -21.1544759 -0.522369E-06  0.277E-03   11.72       8.5  T
   5    -21.1544759 -0.202802E-07  0.152E-03   11.72      15.5  T
   6    -21.1544759 -0.251325E-08  0.423E-04   11.72      55.8  T
   7    -21.1544759 -0.323489E-09  0.970E-05   11.72     243.0  T
     SCC iter.                  ...        0 min,  0.002 sec
     gradient                   ...        0 min,  0.004 sec
 * total energy  :   -20.8944936 Eh     change       -0.8391867E-03 Eh
   gradient norm :     0.0137003 Eh/α   predicted    -0.6404386E-03 ( -23.68%)
   displ. norm   :     0.0772768 α      lambda       -0.3512246E-03
   maximum displ.:     0.0373569 α      in ANC's #7, #1, #5, ...

........................................................................
.............................. CYCLE    3 ..............................
........................................................................

 iter      E             dE          RMSdq      gap      omega  full diag
   1    -21.1577296 -0.211577E+02  0.476E-02   11.94       0.0  T
   2    -21.1577346 -0.501039E-05  0.277E-02   11.94       1.0  T
   3    -21.1577349 -0.232445E-06  0.110E-02   11.94       2.1  T
   4    -21.1577351 -0.235611E-06  0.213E-03   11.94      11.0  T
   5    -21.1577351 -0.136331E-07  0.101E-03   11.94      23.4  T
   6    -21.1577351 -0.163398E-08  0.404E-04   11.94      58.3  T
   7    -21.1577351 -0.238234E-09  0.879E-05   11.94     268.2  T
     SCC iter.                  ...        0 min,  0.002 sec
     gradient                   ...        0 min,  0.004 sec
 * total energy  :   -20.8947027 Eh     change       -0.2091742E-03 Eh
   gradient norm :     0.0035951 Eh/α   predicted    -0.1766619E-03 ( -15.54%)
   displ. norm   :     0.0554989 α      lambda       -0.6023098E-04
   maximum displ.:     0.0320340 α      in ANC's #1, #5, #7, ...

........................................................................
.............................. CYCLE    4 ..............................
........................................................................

 iter      E             dE          RMSdq      gap      omega  full diag
   1    -21.1574700 -0.211575E+02  0.200E-02   12.00       0.0  T
   2    -21.1574705 -0.508577E-06  0.121E-02   12.00       1.9  T
   3    -21.1574705 -0.138195E-07  0.385E-03   12.00       6.1  T
   4    -21.1574705 -0.534323E-07  0.781E-04   12.00      30.2  T
   5    -21.1574705 -0.173227E-08  0.316E-04   12.00      74.6  T
     SCC iter.                  ...        0 min,  0.002 sec
     gradient                   ...        0 min,  0.003 sec
 * total energy  :   -20.8947463 Eh     change       -0.4358511E-04 Eh
   gradient norm :     0.0017989 Eh/α   predicted    -0.3020731E-04 ( -30.69%)
   displ. norm   :     0.1168638 α      lambda       -0.4411601E-04
   maximum displ.:     0.0695706 α      in ANC's #1, #5, #7, ...

........................................................................
.............................. CYCLE    5 ..............................
........................................................................

 iter      E             dE          RMSdq      gap      omega  full diag
   1    -21.1561819 -0.211562E+02  0.346E-02   12.05       0.0  T
   2    -21.1561824 -0.523352E-06  0.208E-02   12.05       1.1  T
   3    -21.1561824  0.365078E-08  0.375E-03   12.05       6.3  T
   4    -21.1561825 -0.100662E-06  0.105E-03   12.05      22.3  T
   5    -21.1561825 -0.187129E-08  0.400E-04   12.05      58.9  T
   6    -21.1561825 -0.125567E-09  0.148E-04   12.05     159.4  T
     SCC iter.                  ...        0 min,  0.002 sec
     gradient                   ...        0 min,  0.003 sec
 * total energy  :   -20.8947810 Eh     change       -0.3466044E-04 Eh
   gradient norm :     0.0033527 Eh/α   predicted    -0.2219095E-04 ( -35.98%)
   displ. norm   :     0.0356226 α      lambda       -0.1688442E-04
   maximum displ.:     0.0229000 α      in ANC's #1, #5, #7, ...

........................................................................
.............................. CYCLE    6 ..............................
........................................................................

 iter      E             dE          RMSdq      gap      omega  full diag
   1    -21.1562646 -0.211563E+02  0.967E-03   12.03       0.0  T
   2    -21.1562646 -0.328861E-07  0.576E-03   12.03       4.1  T
   3    -21.1562646  0.100579E-08  0.871E-04   12.03      27.1  T
   4    -21.1562646 -0.532014E-08  0.217E-04   12.03     108.6  T
     SCC iter.                  ...        0 min,  0.001 sec
     gradient                   ...        0 min,  0.003 sec
 * total energy  :   -20.8947957 Eh     change       -0.1475964E-04 Eh
   gradient norm :     0.0024639 Eh/α   predicted    -0.8451639E-05 ( -42.74%)
   displ. norm   :     0.1037819 α      lambda       -0.3796646E-04
   maximum displ.:     0.0662494 α      in ANC's #1, #5, #2, ...

........................................................................
.............................. CYCLE    7 ..............................
........................................................................

 iter      E             dE          RMSdq      gap      omega  full diag
   1    -21.1565988 -0.211566E+02  0.278E-02   11.99       0.0  T
   2    -21.1565990 -0.196159E-06  0.166E-02   11.99       1.4  T
   3    -21.1565990  0.123009E-07  0.219E-03   11.99      10.8  T
   4    -21.1565990 -0.418189E-07  0.545E-04   11.99      43.2  T
   5    -21.1565990 -0.481034E-09  0.197E-04   11.99     119.8  T
     SCC iter.                  ...        0 min,  0.002 sec
     gradient                   ...        0 min,  0.003 sec
 * total energy  :   -20.8948194 Eh     change       -0.2369787E-04 Eh
   gradient norm :     0.0010385 Eh/α   predicted    -0.1918638E-04 ( -19.04%)
   displ. norm   :     0.0715201 α      lambda       -0.6475680E-05
   maximum displ.:     0.0507292 α      in ANC's #1, #5, #2, ...

........................................................................
.............................. CYCLE    8 ..............................
........................................................................

 iter      E             dE          RMSdq      gap      omega  full diag
   1    -21.1569104 -0.211569E+02  0.182E-02   11.98       0.0  T
   2    -21.1569104 -0.361305E-07  0.108E-02   11.98       2.2  T
   3    -21.1569104  0.590283E-10  0.851E-04   11.98      27.7  T
   4    -21.1569104 -0.699080E-08  0.285E-04   11.98      82.7  T
     SCC iter.                  ...        0 min,  0.001 sec
     gradient                   ...        0 min,  0.003 sec
 * total energy  :   -20.8948252 Eh     change       -0.5749934E-05 Eh
   gradient norm :     0.0007842 Eh/α   predicted    -0.3244885E-05 ( -43.57%)
   displ. norm   :     0.0232931 α      lambda       -0.2299384E-05
   maximum displ.:     0.0182901 α      in ANC's #1, #2, #5, ...

........................................................................
.............................. CYCLE    9 ..............................
........................................................................

 iter      E             dE          RMSdq      gap      omega  full diag
   1    -21.1570535 -0.211571E+02  0.688E-03   11.99       0.0  T
   2    -21.1570535 -0.166399E-07  0.409E-03   11.99       5.8  T
   3    -21.1570535 -0.383384E-09  0.462E-04   11.99      51.1  T
   4    -21.1570535 -0.972456E-09  0.133E-04   11.99     177.7  T
     SCC iter.                  ...        0 min,  0.001 sec
     gradient                   ...        0 min,  0.003 sec
 * total energy  :   -20.8948279 Eh     change       -0.2684248E-05 Eh
   gradient norm :     0.0004324 Eh/α   predicted    -0.1148950E-05 ( -57.20%)
   displ. norm   :     0.0322589 α      lambda       -0.2532318E-05
   maximum displ.:     0.0229445 α      in ANC's #1, #2, #7, ...

........................................................................
.............................. CYCLE   10 ..............................
........................................................................

 iter      E             dE          RMSdq      gap      omega  full diag
   1    -21.1569909 -0.211570E+02  0.102E-02   12.00       0.0  T
   2    -21.1569909 -0.105731E-07  0.612E-03   12.00       3.8  T
   3    -21.1569909 -0.225042E-08  0.442E-04   12.00      53.3  T
   4    -21.1569909 -0.124788E-08  0.215E-04   12.00     109.9  T
     SCC iter.                  ...        0 min,  0.001 sec
     gradient                   ...        0 min,  0.003 sec
 * total energy  :   -20.8948308 Eh     change       -0.2885620E-05 Eh
   gradient norm :     0.0004986 Eh/α   predicted    -0.1266591E-05 ( -56.11%)
   displ. norm   :     0.0354589 α      lambda       -0.1983566E-05
   maximum displ.:     0.0250128 α      in ANC's #1, #2, #7, ...

........................................................................
.............................. CYCLE   11 ..............................
........................................................................

 iter      E             dE          RMSdq      gap      omega  full diag
   1    -21.1569462 -0.211569E+02  0.110E-02   12.00       0.0  T
   2    -21.1569462 -0.807597E-08  0.668E-03   12.00       3.5  T
   3    -21.1569462 -0.379223E-08  0.376E-04   12.00      62.7  T
   4    -21.1569462 -0.350298E-09  0.219E-04   12.00     107.8  T
     SCC iter.                  ...        0 min,  0.001 sec
     gradient                   ...        0 min,  0.003 sec
 * total energy  :   -20.8948328 Eh     change       -0.2063944E-05 Eh
   gradient norm :     0.0004328 Eh/α   predicted    -0.9927137E-06 ( -51.90%)
   displ. norm   :     0.0255970 α      lambda       -0.9563328E-06
   maximum displ.:     0.0193321 α      in ANC's #1, #2, #6, ...

........................................................................
.............................. CYCLE   12 ..............................
........................................................................

 iter      E             dE          RMSdq      gap      omega  full diag
   1    -21.1568949 -0.211569E+02  0.754E-03   12.00       0.0  T
   2    -21.1568949 -0.352186E-08  0.454E-03   12.00       5.2  T
   3    -21.1568949 -0.162991E-08  0.240E-04   12.00      98.2  T
   4    -21.1568949 -0.197034E-10  0.124E-04   12.00     190.2  T
     SCC iter.                  ...        0 min,  0.001 sec
     gradient                   ...        0 min,  0.003 sec
 * total energy  :   -20.8948338 Eh     change       -0.9779054E-06 Eh
   gradient norm :     0.0002154 Eh/α   predicted    -0.4780838E-06 ( -51.11%)
   displ. norm   :     0.0150125 α      lambda       -0.4464639E-06
   maximum displ.:     0.0121631 α      in ANC's #1, #2, #6, ...

........................................................................
.............................. CYCLE   13 ..............................
........................................................................

 iter      E             dE          RMSdq      gap      omega  full diag
   1    -21.1568812 -0.211569E+02  0.362E-03   12.00       0.0  T
   2    -21.1568812 -0.102204E-08  0.216E-03   12.00      10.9  T
   3    -21.1568812 -0.192230E-09  0.101E-04   12.00     233.1  T
   4    -21.1568812 -0.184706E-10  0.527E-05   12.00     447.2  T
     SCC iter.                  ...        0 min,  0.001 sec
     gradient                   ...        0 min,  0.003 sec
 * total energy  :   -20.8948343 Eh     change       -0.5363058E-06 Eh
   gradient norm :     0.0001263 Eh/α   predicted    -0.2238302E-06 ( -58.26%)
   displ. norm   :     0.0129980 α      lambda       -0.4016462E-06
   maximum displ.:     0.0102675 α      in ANC's #1, #6, #3, ...

........................................................................
.............................. CYCLE   14 ..............................
........................................................................

 iter      E             dE          RMSdq      gap      omega  full diag
   1    -21.1569150 -0.211569E+02  0.314E-03   11.99       0.0  T
   2    -21.1569150 -0.629136E-09  0.188E-03   11.99      12.6  T
   3    -21.1569150 -0.119087E-09  0.115E-04   11.99     205.5  T
   4    -21.1569150 -0.907541E-10  0.541E-05   11.99     435.9  T
     SCC iter.                  ...        0 min,  0.001 sec
     gradient                   ...        0 min,  0.003 sec
 * total energy  :   -20.8948348 Eh     change       -0.4696116E-06 Eh
   gradient norm :     0.0001403 Eh/α   predicted    -0.1989693E-06 ( -57.63%)
   displ. norm   :     0.0115875 α      lambda       -0.2821209E-06
   maximum displ.:     0.0093290 α      in ANC's #1, #6, #3, ...

........................................................................
.............................. CYCLE   15 ..............................
........................................................................

 iter      E             dE          RMSdq      gap      omega  full diag
   1    -21.1569061 -0.211569E+02  0.319E-03   11.99       0.0  T
   2    -21.1569061 -0.784677E-09  0.192E-03   11.99      12.3  T
   3    -21.1569061 -0.270546E-09  0.105E-04   11.99     224.8  T
   4    -21.1569061 -0.200977E-10  0.589E-05   11.99     400.3  T
     SCC iter.                  ...        0 min,  0.001 sec
     gradient                   ...        0 min,  0.003 sec
 * total energy  :   -20.8948351 Eh     change       -0.2998269E-06 Eh
   gradient norm :     0.0001125 Eh/α   predicted    -0.1411796E-06 ( -52.91%)
   displ. norm   :     0.0066767 α      lambda       -0.1026048E-06
   maximum displ.:     0.0056584 α      in ANC's #1, #5, #3, ...

........................................................................
.............................. CYCLE   16 ..............................
........................................................................

 iter      E             dE          RMSdq      gap      omega  full diag
   1    -21.1569244 -0.211569E+02  0.167E-03   11.99       0.0  T
   2    -21.1569244 -0.308816E-09  0.100E-03   11.99      23.5  T
   3    -21.1569244 -0.626521E-10  0.556E-05   11.99     424.1  T
   4    -21.1569244 -0.532197E-11  0.287E-05   11.99     821.5  T
     SCC iter.                  ...        0 min,  0.001 sec
     gradient                   ...        0 min,  0.003 sec
 * total energy  :   -20.8948352 Eh     change       -0.1173592E-06 Eh
   gradient norm :     0.0000497 Eh/α   predicted    -0.5233705E-07 ( -55.40%)
   displ. norm   :     0.0036525 α      lambda       -0.5567393E-07
   maximum displ.:     0.0033425 α      in ANC's #1, #4, #6, ...

........................................................................
.............................. CYCLE   17 ..............................
........................................................................

 iter      E             dE          RMSdq      gap      omega  full diag
   1    -21.1569261 -0.211569E+02  0.101E-03   11.99       0.0  T
   2    -21.1569261 -0.686491E-10  0.602E-04   11.99      39.2  T
   3    -21.1569261 -0.175753E-10  0.292E-05   11.99     807.8  T
     SCC iter.                  ...        0 min,  0.001 sec
     gradient                   ...        0 min,  0.003 sec
 * total energy  :   -20.8948353 Eh     change       -0.6821897E-07 Eh
   gradient norm :     0.0000400 Eh/α   predicted    -0.2601957E-07 ( -61.86%)
   displ. norm   :     0.0041211 α      lambda       -0.5943775E-07
   maximum displ.:     0.0033440 α      in ANC's #1, #6, #4, ...

   *** GEOMETRY OPTIMIZATION CONVERGED AFTER 17 ITERATIONS ***

------------------------------------------------------------------------
 total energy gain   :        -0.0011809 Eh       -0.7410 kcal/mol
 total RMSD          :         0.1395504 a0        0.0738 Å
 total power (kW/mol):        -0.1823822 (step)  -22.6818 (real)
------------------------------------------------------------------------

 ANCopt (total)                0 d,  0 h,  0 min,  0.137 sec
 optimizer setup                ...        0 min,  0.001 sec (  0.502%)
 model hessian                  ...        0 min,  0.009 sec (  6.480%)
 ANC generation                 ...        0 min,  0.000 sec (  0.328%)
 coordinate transformation      ...        0 min,  0.000 sec (  0.077%)
 single point calculation       ...        0 min,  0.117 sec ( 85.905%)
 optimization log               ...        0 min,  0.006 sec (  4.381%)
 hessian update                 ...        0 min,  0.000 sec (  0.073%)
 rational function              ...        0 min,  0.002 sec (  1.695%)

================
 final structure:
================
$coord
       -3.56976160866979        2.31697259425688        0.44733540627190      C
       -2.25791237854802        0.15929725036749       -0.93110621749179      C
       -0.24631617863211       -1.17440676911264        0.66625807065779      C
        1.96598310276723        0.53106033497115        1.45718943512195      C
        3.34391228513801        1.72310055285173       -0.77583954013199      C
        0.60308767235721       -3.26837122635883       -0.78174432331560      O
       -2.26430614714559        3.85512806681586        0.82819761098920      H
       -5.10515572070039        3.04713172580701       -0.70441998304548      H
       -4.34972040278083        1.66244367667266        2.23282687880562      H
       -3.64505021647115       -1.27231935892348       -1.46552009281805      H
       -1.38200939562138        0.83682917758207       -2.66768773814947      H
       -1.16222418140322       -1.88241260002420        2.40284049510047      H
        1.25458483385521        1.99417658880642        2.72024448518411      H
        3.29885736607536       -0.62165302298698        2.53608129571777      H
        2.20349872732009        3.19063038217067       -1.64804132462387      H
        5.11033556528468        2.56526469387720       -0.15123473519964      H
        3.75948892352360        0.29255558276072       -2.19220793134773      H
        1.85071165487139       -4.19410218162074        0.17905202547429      H
$end
 
 Bond Distances (Angstroems)
 ---------------------------
C1-C2=1.5224         C1-H7=1.0865         C1-H8=1.0867         C1-H9=1.0877         C2-C1=1.5224         C2-C3=1.5316         
C2-H10=1.0921        C2-H11=1.0899        C3-C2=1.5316         C3-C4=1.5363         C3-O6=1.4202         C3-H12=1.1044        
C4-C3=1.5363         C4-C5=1.5251         C4-H13=1.0899        C4-H14=1.0934        C5-C4=1.5251         C5-H15=1.0864        
C5-H16=1.0870        C5-H17=1.0877        O6-C3=1.4202         O6-H18=0.9666        H7-C1=1.0865         H8-C1=1.0867         
H9-C1=1.0877         H10-C2=1.0921        H11-C2=1.0899        H12-C3=1.1044        H13-C4=1.0899        H14-C4=1.0934        
H15-C5=1.0864        H16-C5=1.0870        H17-C5=1.0877        H18-O6=0.9666        
 C  H  Rav=1.0902 sigma=0.0050  Rmin=1.0864  Rmax=1.1044    11
 C  C  Rav=1.5288 sigma=0.0054  Rmin=1.5224  Rmax=1.5363     4
 O  H  Rav=0.9666 sigma=0.0000  Rmin=0.9666  Rmax=0.9666     1
 O  C  Rav=1.4202 sigma=0.0000  Rmin=1.4202  Rmax=1.4202     1
 
 selected bond angles (degree)
 --------------------
H7-C1-C2=111.15                H8-C1-C2=109.81                H8-C1-H7=108.24                H9-C1-C2=110.51                
H9-C1-H7=108.58                H9-C1-H8=108.46                C3-C2-C1=113.46                H10-C2-C1=109.75               
H10-C2-C3=106.88               H11-C2-C1=110.56               H11-C2-C3=108.74               H11-C2-H10=107.20              
C4-C3-C2=114.16                O6-C3-C2=106.36                O6-C3-C4=111.36                H12-C3-C2=108.09               
H12-C3-C4=107.88               H12-C3-O6=108.85               C5-C4-C3=113.34                H13-C4-C3=108.73               
H13-C4-C5=110.27               H14-C4-C3=107.82               H14-C4-C5=109.08               H14-C4-H13=107.39              
H15-C5-C4=111.05               H16-C5-C4=110.19               H16-C5-H15=108.29              H17-C5-C4=110.04               
H17-C5-H15=108.48              H17-C5-H16=108.72              H18-O6-C3=109.13               
 
 selected dihedral angles (degree)
 ---------------------------------
C3-C2-C1-H7= 66.38            C3-C2-C1-H8=186.13            C3-C2-C1-H9=305.75            H10-C2-C1-H7=185.86           
H10-C2-C1-H8=305.61           H10-C2-C1-H9= 65.23           H11-C2-C1-H7=303.91           H11-C2-C1-H8= 63.66           
H11-C2-C1-H9=183.27           C4-C3-C2-C1=297.51            C4-C3-C2-H10=176.40           C4-C3-C2-H11= 60.98           
O6-C3-C2-C1=174.30            O6-C3-C2-H10= 53.20           O6-C3-C2-H11=297.77           H12-C3-C2-C1= 57.54           
H12-C3-C2-H10=296.44          H12-C3-C2-H11=181.02          C5-C4-C3-C2=302.34            C5-C4-C3-O6= 62.80            
C5-C4-C3-H12=182.18           H13-C4-C3-C2= 65.35           H13-C4-C3-O6=185.81           H13-C4-C3-H12=305.19          
H14-C4-C3-C2=181.49           H14-C4-C3-O6=301.95           H14-C4-C3-H12= 61.34          H15-C5-C4-C3= 72.23           
H15-C5-C4-H13=310.07          H15-C5-C4-H14=192.37          H16-C5-C4-C3=192.22           H16-C5-C4-H13= 70.06          
H16-C5-C4-H14=312.35          H17-C5-C4-C3=312.10           H17-C5-C4-H13=189.94          H17-C5-C4-H14= 72.23          
H18-O6-C3-C2=181.46           H18-O6-C3-C4= 56.52           H18-O6-C3-H12=297.71          
           -------------------------------------------------
          |                Final Singlepoint                |
           -------------------------------------------------

          ...................................................
          :                      SETUP                      :
          :.................................................:
          :  # basis functions                  36          :
          :  # atomic orbitals                  36          :
          :  # shells                           24          :
          :  # electrons                        38          :
          :  max. iterations                   250          :
          :  Hamiltonian                  GFN2-xTB          :
          :  restarted?                      false          :
          :  GBSA solvation                   true          :
          :  PC potential                    false          :
          :  electronic temp.          300.0000000     K    :
          :  accuracy                    1.0000000          :
          :  -> integral cutoff          0.2500000E+02      :
          :  -> integral neglect         0.1000000E-07      :
          :  -> SCF convergence          0.1000000E-05 Eh   :
          :  -> wf. convergence          0.1000000E-03 e    :
          :  Broyden damping             0.4000000          :
          :  net charge                          0          :
          :  unpaired electrons                  0          :
          ...................................................

 iter      E             dE          RMSdq      gap      omega  full diag
   1    -21.1569261 -0.211569E+02  0.151E-05   11.99       0.0  T
   2    -21.1569261 -0.198952E-12  0.899E-06   11.99    2621.9  T
   3    -21.1569261 -0.106581E-13  0.254E-06   11.99    9266.4  T

   *** convergence criteria satisfied after 3 iterations ***

         #    Occupation            Energy/Eh            Energy/eV
      -------------------------------------------------------------
         1        2.0000           -0.6838326             -18.6080
       ...           ...                  ...                  ...
        13        2.0000           -0.4614368             -12.5563
        14        2.0000           -0.4551276             -12.3847
        15        2.0000           -0.4520255             -12.3002
        16        2.0000           -0.4349708             -11.8362
        17        2.0000           -0.4293006             -11.6819
        18        2.0000           -0.4207927             -11.4504
        19        2.0000           -0.4027835             -10.9603 (HOMO)
        20                          0.0379389               1.0324 (LUMO)
        21                          0.0897417               2.4420
        22                          0.0923920               2.5141
        23                          0.1231373               3.3507
        24                          0.1366788               3.7192
       ...                                ...                  ...
        36                          0.3008055               8.1853
      -------------------------------------------------------------
                  HL-Gap            0.4407224 Eh           11.9927 eV
             Fermi-level           -0.1824223 Eh           -4.9640 eV

 SCC (total)                   0 d,  0 h,  0 min,  0.006 sec
 SCC setup                      ...        0 min,  0.001 sec ( 15.248%)
 Dispersion                     ...        0 min,  0.000 sec (  0.716%)
 classical contributions        ...        0 min,  0.000 sec (  0.239%)
 integral evaluation            ...        0 min,  0.001 sec ( 17.157%)
 iterations                     ...        0 min,  0.001 sec ( 13.820%)
 molecular gradient             ...        0 min,  0.003 sec ( 51.025%)
 printout                       ...        0 min,  0.000 sec (  1.606%)

         :::::::::::::::::::::::::::::::::::::::::::::::::::::
         ::                     SUMMARY                     ::
         :::::::::::::::::::::::::::::::::::::::::::::::::::::
         :: total energy             -20.894835284279 Eh    ::
         :: total w/o Gsasa/hb       -20.890981871963 Eh    ::
         :: gradient norm              0.000040039535 Eh/a0 ::
         :: HOMO-LUMO gap             11.992667118155 eV    ::
         ::.................................................::
         :: SCC energy               -21.156889912177 Eh    ::
         :: -> isotropic ES            0.036568942244 Eh    ::
         :: -> anisotropic ES          0.004242460742 Eh    ::
         :: -> anisotropic XC          0.007866510032 Eh    ::
         :: -> dispersion             -0.010225514380 Eh    ::
         :: -> Gsolv                  -0.008106360177 Eh    ::
         ::    -> Gelec               -0.004252947861 Eh    ::
         ::    -> Gsasa                0.000243916175 Eh    ::
         ::    -> Ghb                 -0.005178088189 Eh    ::
         ::    -> Gshift               0.001080759698 Eh    ::
         :: repulsion energy           0.262054627898 Eh    ::
         :: add. restraining           0.000000000000 Eh    ::
         :: total charge              -0.000000000000 e     ::
         :::::::::::::::::::::::::::::::::::::::::::::::::::::

           ------------------------------------------------- 
          |                Numerical Hessian                |
           ------------------------------------------------- 
step length          :   0.00500
SCC accuracy         :   0.30000
Hessian scale factor :   1.00000
frozen atoms in %    :   0.00000    0
RMS gradient         :   0.00004
estimated CPU  time      0.01 min
estimated wall time      0.01 min

writing file <hessian>.

 projected vibrational frequencies (cm⁻¹)
eigval :       -0.00    -0.00     0.00     0.00     0.00     0.00
eigval :       74.37   128.54   199.73   221.47   247.42   290.85
eigval :      301.69   387.91   437.79   581.34   788.27   819.86
eigval :      862.76   950.48   998.84  1037.22  1056.58  1085.02
eigval :     1106.18  1125.31  1146.79  1224.28  1234.27  1260.24
eigval :     1307.67  1324.56  1341.54  1368.88  1408.49  1410.32
eigval :     1481.33  1487.85  1496.26  1499.72  1506.12  1512.92
eigval :     2802.29  2954.75  2974.68  2998.54  3005.97  3028.88
eigval :     3032.21  3035.26  3038.33  3046.73  3047.59  3504.07
           -------------------------------------------------
          |                Property Printout                |
           -------------------------------------------------

    * Orbital Energies and Occupations

         #    Occupation            Energy/Eh            Energy/eV
      -------------------------------------------------------------
         1        2.0000           -0.6838326             -18.6080
       ...           ...                  ...                  ...
         7        2.0000           -0.5423493             -14.7581
         8        2.0000           -0.5256644             -14.3041
         9        2.0000           -0.5211650             -14.1816
        10        2.0000           -0.4933289             -13.4242
        11        2.0000           -0.4805215             -13.0757
        12        2.0000           -0.4728179             -12.8660
        13        2.0000           -0.4614368             -12.5563
        14        2.0000           -0.4551276             -12.3847
        15        2.0000           -0.4520255             -12.3002
        16        2.0000           -0.4349708             -11.8362
        17        2.0000           -0.4293006             -11.6819
        18        2.0000           -0.4207927             -11.4504
        19        2.0000           -0.4027835             -10.9603 (HOMO)
        20                          0.0379389               1.0324 (LUMO)
        21                          0.0897417               2.4420
        22                          0.0923920               2.5141
        23                          0.1231373               3.3507
        24                          0.1366788               3.7192
        25                          0.1387331               3.7751
        26                          0.1489287               4.0526
        27                          0.1737802               4.7288
        28                          0.1978700               5.3843
        29                          0.2059786               5.6050
        30                          0.2062149               5.6114
       ...                                ...                  ...
        36                          0.3008055               8.1853
      -------------------------------------------------------------
                  HL-Gap            0.4407224 Eh           11.9927 eV
             Fermi-level           -0.1824223 Eh           -4.9640 eV

     #   Z          covCN         q      C6AA      α(0)
     1   6 C        3.752    -0.115    22.756     6.803
     2   6 C        3.801    -0.066    21.757     6.641
     3   6 C        3.723     0.116    18.788     6.190
     4   6 C        3.799    -0.072    21.875     6.659
     5   6 C        3.751    -0.109    22.651     6.787
     6   8 O        1.655    -0.520    23.322     6.519
     7   1 H        0.925     0.043     2.406     2.425
     8   1 H        0.925     0.046     2.370     2.408
     9   1 H        0.925     0.038     2.470     2.458
    10   1 H        0.924     0.041     2.436     2.441
    11   1 H        0.925     0.048     2.349     2.397
    12   1 H        0.923     0.005     2.972     2.696
    13   1 H        0.925     0.041     2.438     2.442
    14   1 H        0.924     0.035     2.523     2.484
    15   1 H        0.925     0.039     2.457     2.451
    16   1 H        0.925     0.039     2.464     2.455
    17   1 H        0.925     0.045     2.389     2.417
    18   1 H        0.805     0.346     0.598     1.215

 Mol. C6AA /au·bohr⁶  :       2117.975393
 Mol. C8AA /au·bohr⁸  :      43671.929285
 Mol. α(0) /au        :         67.887716


Wiberg/Mayer (AO) data.
largest (>0.10) Wiberg bond orders for each atom

 ---------------------------------------------------------------------------
     #   Z sym  total        # sym  WBO       # sym  WBO       # sym  WBO
 ---------------------------------------------------------------------------
     1   6 C    3.996 --     2 C    1.020     9 H    0.987     8 H    0.986
                             7 H    0.985
     2   6 C    3.995 --     1 C    1.020     3 C    0.993    10 H    0.976
                            11 H    0.974
     3   6 C    3.950 --     2 C    0.993     4 C    0.988     6 O    0.979
                            12 H    0.962
     4   6 C    3.997 --     5 C    1.020     3 C    0.988    14 H    0.976
                            13 H    0.975
     5   6 C    3.996 --     4 C    1.020    16 H    0.987    15 H    0.986
                            17 H    0.986
     6   8 O    1.911 --     3 C    0.979    18 H    0.864
     7   1 H    0.998 --     1 C    0.985
     8   1 H    0.998 --     1 C    0.986
     9   1 H    0.999 --     1 C    0.987
    10   1 H    0.998 --     2 C    0.976
    11   1 H    0.998 --     2 C    0.974
    12   1 H    1.000 --     3 C    0.962
    13   1 H    0.998 --     4 C    0.975
    14   1 H    0.999 --     4 C    0.976
    15   1 H    0.998 --     5 C    0.986
    16   1 H    0.998 --     5 C    0.987
    17   1 H    0.998 --     5 C    0.986
    18   1 H    0.880 --     6 O    0.864
 ---------------------------------------------------------------------------

Topologies differ in total number of bonds
Writing topology from bond orders to xtbtopo.mol

molecular dipole:
                 x           y           z       tot (Debye)
 q only:        0.246       0.258       0.480
   full:        0.326       0.216       0.665       1.962
molecular quadrupole (traceless):
                xx          xy          yy          xz          yz          zz
 q only:        1.348      -2.575      -0.025       0.665      -2.478      -1.322
  q+dip:        1.685      -2.540      -0.385       1.125      -3.992      -1.300
   full:        1.603      -2.913      -0.196       1.073      -3.703      -1.406

           -------------------------------------------------
          |                Geometry Summary                 |
           -------------------------------------------------

      molecular mass/u    :       88.1483734
   center of mass at/Å    :        0.0002239      -0.0001959      -0.0002735
  moments of inertia/u·Å² :        0.1249459E+03   0.1822270E+03   0.2513580E+03
rotational constants/cm⁻¹ :        0.1349195E+00   0.9250898E-01   0.6706623E-01

 * 17 selected distances

     #   Z          #   Z                                           value/Å
     1   6 C        2   6 C                                       1.5223955
     2   6 C        3   6 C                                       1.5315873
     3   6 C        4   6 C                                       1.5362972 (max)
     4   6 C        5   6 C                                       1.5251020
     3   6 C        6   8 O                                       1.4202160
     1   6 C        7   1 H                                       1.0864503
     1   6 C        8   1 H                                       1.0866972
     1   6 C        9   1 H                                       1.0876780
     2   6 C       10   1 H                                       1.0921167
     2   6 C       11   1 H                                       1.0898959
     3   6 C       12   1 H                                       1.1044321
     4   6 C       13   1 H                                       1.0899131
     4   6 C       14   1 H                                       1.0934023
     5   6 C       15   1 H                                       1.0864156
     5   6 C       16   1 H                                       1.0870211
     5   6 C       17   1 H                                       1.0877473
     6   8 O       18   1 H                                       0.9666249 (min)

 * 4 distinct bonds (by element types)

   Z      Z             #   av. dist./Å        max./Å        min./Å
   1 H    6 C          11     1.0901609     1.1044321     1.0864156
   6 C    6 C           4     1.5288455     1.5362972     1.5223955
   1 H    8 O           1     0.9666249     0.9666249     0.9666249
   6 C    8 O           1     1.4202160     1.4202160     1.4202160

           -------------------------------------------------
          |               Frequency Printout                |
           -------------------------------------------------
 projected vibrational frequencies (cm⁻¹)
eigval :       -0.00    -0.00     0.00     0.00     0.00     0.00
eigval :       74.37   128.54   199.73   221.47   247.42   290.85
eigval :      301.69   387.91   437.79   581.34   788.27   819.86
eigval :      862.76   950.48   998.84  1037.22  1056.58  1085.02
eigval :     1106.18  1125.31  1146.79  1224.28  1234.27  1260.24
eigval :     1307.67  1324.56  1341.54  1368.88  1408.49  1410.32
eigval :     1481.33  1487.85  1496.26  1499.72  1506.12  1512.92
eigval :     2802.29  2954.75  2974.68  2998.54  3005.97  3028.88
eigval :     3032.21  3035.26  3038.33  3046.73  3047.59  3504.07
 reduced masses (amu)
   1:  9.67   2: 11.40   3: 11.10   4: 10.18   5:  9.36   6: 12.17   7:  7.88   8:  6.76
   9:  4.81  10:  2.66  11:  8.48  12:  4.37  13:  4.77  14:  9.29  15: 10.42  16:  9.05
  17:  5.39  18:  3.65  19:  5.12  20:  5.95  21:  8.22  22:  4.23  23:  5.61  24:  6.41
  25:  6.41  26:  7.75  27:  7.33  28:  4.73  29:  3.31  30:  2.95  31:  3.40  32:  5.08
  33:  4.04  34:  5.22  35:  3.25  36:  3.18  37:  1.87  38:  1.77  39:  1.60  40:  1.54
  41:  1.55  42:  1.71  43:  1.71  44:  1.82  45:  1.87  46:  1.64  47:  1.59  48:  1.85
  49:  1.95  50:  1.78  51:  1.94  52:  1.38  53:  1.39  54:  1.87
 IR intensities (km·mol⁻¹)
   1:  0.55   2:  0.01   3:  0.12   4:  0.06   5:  0.64   6:  0.71   7:  0.00   8:  0.59
   9:  0.32  10:  0.10  11:  5.43  12:158.18  13: 65.96  14:  8.84  15:  6.38  16:  3.98
  17:  4.62  18:  2.98  19:  9.09  20: 16.03  21: 88.97  22:  1.73  23: 28.05  24: 44.10
  25: 13.71  26: 26.64  27: 30.79  28: 56.14  29: 10.63  30:  8.84  31:  9.87  32: 29.84
  33: 14.46  34: 16.05  35:  2.82  36:  0.81  37:  0.62  38:  0.43  39:  3.73  40:  0.48
  41:  1.08  42:  0.87  43:168.98  44: 86.43  45: 63.82  46: 44.51  47: 34.79  48: 84.74
  49: 78.01  50: 65.43  51: 65.41  52: 71.62  53: 11.21  54: 50.20
 Raman intensities (Ä⁴*amu⁻¹)
   1:  0.00   2:  0.00   3:  0.00   4:  0.00   5:  0.00   6:  0.00   7:  0.00   8:  0.00
   9:  0.00  10:  0.00  11:  0.00  12:  0.00  13:  0.00  14:  0.00  15:  0.00  16:  0.00
  17:  0.00  18:  0.00  19:  0.00  20:  0.00  21:  0.00  22:  0.00  23:  0.00  24:  0.00
  25:  0.00  26:  0.00  27:  0.00  28:  0.00  29:  0.00  30:  0.00  31:  0.00  32:  0.00
  33:  0.00  34:  0.00  35:  0.00  36:  0.00  37:  0.00  38:  0.00  39:  0.00  40:  0.00
  41:  0.00  42:  0.00  43:  0.00  44:  0.00  45:  0.00  46:  0.00  47:  0.00  48:  0.00
  49:  0.00  50:  0.00  51:  0.00  52:  0.00  53:  0.00  54:  0.00
 output can be read by thermo (or use thermo option).
 writing <g98.out> molden fake output.
 recommended (thermochemical) frequency scaling factor: 1.0
           -------------------------------------------------
          |             Thermodynamic Functions             |
           -------------------------------------------------

Molecule has no symmetry elements
It seems to be the C1 point group
c1  symmetry found (for desy threshold:  0.10E+00) used in thermo

          ...................................................
          :                      SETUP                      :
          :.................................................:
          :  # frequencies                          48      :
          :  # imaginary freq.                       0      :
          :  linear?                             false      :
          :  only rotor calc.                    false      :
          :  symmetry                               c1      :
          :  rotational number                       1      :
          :  scaling factor                  1.0000000      :
          :  rotor cutoff                    0.0000000 cm⁻¹ :
          :  imag. cutoff                 -100.0000000 cm⁻¹ :
          :.................................................:

    mode    ω/cm⁻¹     T·S(HO)/kcal·mol⁻¹    T·S(FR)/kcal·mol⁻¹   T·S(vib)
   ------------------------------------------------------------------------
       1     74.37    -1.20277 (100.00%)    -0.93856 (  0.00%)    -1.20277
       2    128.54    -0.88484 (100.00%)    -0.77663 (  0.00%)    -0.88484
       3    199.73    -0.63671 (100.00%)    -0.64613 (  0.00%)    -0.63671
       4    221.47    -0.58050 (100.00%)    -0.61554 (  0.00%)    -0.58050
       5    247.42    -0.52143 (100.00%)    -0.58273 (  0.00%)    -0.52143
       6    290.85    -0.43798 (100.00%)    -0.53484 (  0.00%)    -0.43798
   ------------------------------------------------------------------------

   temp. (K)  partition function   enthalpy   heat capacity  entropy
                                   cal/mol     cal/K/mol   cal/K/mol   J/K/mol
 298.15  VIB   71.3                 3289.079     22.736     19.510
         ROT  0.183E+06              888.752      2.981     27.058
         INT  0.130E+08             4177.831     25.716     46.568
         TR   0.801E+27             1481.254      4.968     39.324
         TOT                        5659.0851    30.6846    85.8921   359.3726

       T/K    H(0)-H(T)+PV         H(T)/Eh          T*S/Eh         G(T)/Eh
   ------------------------------------------------------------------------
    298.15    0.901833E-02    0.171183E+00    0.408101E-01    0.130373E+00
   ------------------------------------------------------------------------

         :::::::::::::::::::::::::::::::::::::::::::::::::::::
         ::                  THERMODYNAMIC                  ::
         :::::::::::::::::::::::::::::::::::::::::::::::::::::
         :: total free energy         -20.764462143299 Eh   ::
         ::.................................................::
         :: total energy              -20.894835284098 Eh   ::
         :: zero point energy           0.162164928026 Eh   ::
         :: G(RRHO) w/o ZPVE           -0.031791787227 Eh   ::
         :: G(RRHO) contrib.            0.130373140799 Eh   ::
         :::::::::::::::::::::::::::::::::::::::::::::::::::::

optimized geometry written to: xtbopt.coord


           -------------------------------------------------
          | TOTAL ENERGY              -20.894835284098 Eh   |
          | TOTAL ENTHALPY            -20.723652029990 Eh   |
          | TOTAL FREE ENERGY         -20.764462143299 Eh   |
          | GRADIENT NORM               0.000040038192 Eh/α |
          | HOMO-LUMO GAP              11.992667409885 eV   |
           -------------------------------------------------

------------------------------------------------------------------------
 * finished run on 2025/04/11 at 12:17:53.135     
------------------------------------------------------------------------
 total:
 * wall-time:     0 d,  0 h,  0 min,  0.998 sec
 *  cpu-time:     0 d,  0 h,  0 min,  0.907 sec
 * ratio c/w:     0.909 speedup
 SCF:
 * wall-time:     0 d,  0 h,  0 min,  0.011 sec
 *  cpu-time:     0 d,  0 h,  0 min,  0.010 sec
 * ratio c/w:     0.990 speedup
 ANC optimizer:
 * wall-time:     0 d,  0 h,  0 min,  0.156 sec
 *  cpu-time:     0 d,  0 h,  0 min,  0.139 sec
 * ratio c/w:     0.892 speedup
 analytical hessian:
 * wall-time:     0 d,  0 h,  0 min,  0.762 sec
 *  cpu-time:     0 d,  0 h,  0 min,  0.746 sec
 * ratio c/w:     0.979 speedup

