18
 energy: -20.893654367409 gnorm: 0.028665648177 xtb: 6.7.1 (edcfbbe)
C           -1.84061486376985        1.24775607611462        0.22034803809506
C           -1.20888838352037        0.05153554176642       -0.48436437859231
C           -0.14515210732973       -0.64177512833506        0.35666080056675
C            1.03119535295857        0.24797652269357        0.76159645882393
C            1.73866736858617        0.94139384684225       -0.39996224986533
O            0.31047979360560       -1.77497670709363       -0.42370825696339
H           -1.11611228714509        2.05232323102505        0.38136949375893
H           -2.66244724087068        1.65601489922701       -0.37570326840192
H           -2.24665279135699        0.96120586656291        1.19717971037397
H           -1.98312757378685       -0.68773428306554       -0.72240321350830
H           -0.76673303951931        0.36393405146006       -1.43833882537436
H           -0.62021650566009       -1.01664057484103        1.27758456472368
H            0.66941716679707        0.99376819523288        1.47973043442048
H            1.74652291671013       -0.37858623618986        1.31096766350966
H            1.08814325946986        1.66941513414530       -0.89452680082231
H            2.62242954388628        1.47909951273642       -0.04315942051383
H            2.07101534238272        0.21966341348356       -1.15315122449839
H            0.99880320414394       -2.21890237592371        0.08878827109552
18
 energy: -20.894493554069 gnorm: 0.013700264290 xtb: 6.7.1 (edcfbbe)
C           -1.84566920743700        1.24951193471117        0.22108534783849
C           -1.20820869834078        0.06119314844246       -0.48471337324714
C           -0.13992088761372       -0.63830239758070        0.35240445817825
C            1.03562525664042        0.25370374896860        0.76539313796064
C            1.73961752664824        0.93790609131265       -0.39808503110646
O            0.30780597642377       -1.76264425347025       -0.42007089102418
H           -1.12327496035008        2.04844637466114        0.37786404056011
H           -2.66318479601642        1.64575494806954       -0.37875045489830
H           -2.24555331724687        0.95249050943427        1.19065978634087
H           -1.97511311009896       -0.68155581236263       -0.72017806004959
H           -0.76489084906119        0.37291806977828       -1.43274924528459
H           -0.61399737978749       -1.02216940572205        1.27050137764448
H            0.67105124314377        1.00294858641420        1.47234190758799
H            1.75823444288249       -0.36886734758461        1.30382500027482
H            1.08622590277764        1.66095091388438       -0.88266055775631
H            2.62299010213131        1.46608138835253       -0.04095596372173
H            2.05175821111445        0.20613045662091       -1.14272462102370
H            0.99323369977178       -2.21902596808867        0.08572093855418
18
 energy: -20.894702728239 gnorm: 0.003595189042 xtb: 6.7.1 (edcfbbe)
C           -1.84897173224176        1.24973380831681        0.22293536698025
C           -1.20499200798543        0.06649292367739       -0.48529830943410
C           -0.13590458226947       -0.63914531475329        0.35252651124516
C            1.03651856910330        0.25913080764551        0.77065343407278
C            1.74039512891187        0.93497766192155       -0.39947546100448
O            0.30953695650730       -1.74924542230044       -0.42003181766824
H           -1.13144589336401        2.04883255568493        0.38009483245357
H           -2.66485600507485        1.63781059672971       -0.37942503314018
H           -2.24659035746995        0.94510925565677        1.18745755154828
H           -1.96552467675273       -0.67992041615688       -0.72260815725679
H           -0.75814595570675        0.38025799476111       -1.42817896770620
H           -0.61372333785399       -1.02311393050292        1.27033411715776
H            0.66685278486544        1.00962020187508        1.46942874956559
H            1.75874345615986       -0.36129919395764        1.30797789009098
H            1.09059867455453        1.66022906012788       -0.87884129619506
H            2.62908791767564        1.45212412641490       -0.04792166157635
H            2.03520793283039        0.19519501311055       -1.13967321806673
H            0.98994228369198       -2.22131874240979        0.07895326576157
18
 energy: -20.894746313345 gnorm: 0.001799028031 xtb: 6.7.1 (edcfbbe)
C           -1.85212230382738        1.24802207279918        0.22412755754711
C           -1.20358058419640        0.06772716648334       -0.48603776551960
C           -0.13381887206377       -0.63939674466513        0.35228258746978
C            1.03643280816750        0.26236986517003        0.77325984126873
C            1.74240887471036        0.93266780343949       -0.40029968299409
O            0.31239232462085       -1.74347088953067       -0.42109340836686
H           -1.13745957164901        2.04954649405777        0.38318049580641
H           -2.66898378091998        1.63407008563610       -0.37849479892799
H           -2.24928828942546        0.93988035464816        1.18776624758041
H           -1.96187389827522       -0.67975792862933       -0.72730469484819
H           -0.75406789675208        0.38511174873913       -1.42635969502422
H           -0.61390287973649       -1.02064630425767        1.27098039432882
H            0.66395293698581        1.01515847390022        1.46744649915093
H            1.75722578774265       -0.35572566451721        1.31474538270253
H            1.09687700417580        1.66411035645341       -0.87645025026456
H            2.63817325222713        1.44099518733023       -0.05354042113487
H            2.02577009670979        0.18878642894512       -1.14106807953083
H            0.98859414708729       -2.22397752016093        0.07576758758432
18
 energy: -20.894780973784 gnorm: 0.003352737079 xtb: 6.7.1 (edcfbbe)
C           -1.85892297682343        1.24290565897715        0.22655227553100
C           -1.20113505669413        0.06957356591671       -0.48774082806473
C           -0.13131169010311       -0.63822383233410        0.35195880157739
C            1.03556559145804        0.26856133670994        0.77555853296548
C            1.74784991104505        0.92803305147949       -0.40178099603452
O            0.31843586229853       -1.73560512302879       -0.42251231348124
H           -1.15024548674833        2.05034788747874        0.39005823362584
H           -2.67881434552954        1.62667247062576       -0.37512083292298
H           -2.25550187476361        0.92900472100690        1.18966522232616
H           -1.95540610879565       -0.67967776250067       -0.73807799546928
H           -0.74770387609977        0.39575410744271       -1.42394294699542
H           -0.61374568571065       -1.01645399991845        1.27181362163380
H            0.65826669098821        1.02689963411112        1.46134360976257
H            1.75242634795832       -0.34486675993862        1.32820145852219
H            1.11401346043709        1.67611687888905       -0.87069770922311
H            2.65945682855827        1.41597342648019       -0.06349989880335
H            2.00809396704264        0.17911269871002       -1.14731722593078
H            0.98540759706344       -2.22865697426595        0.07444678780881
18
 energy: -20.894795733428 gnorm: 0.002463891317 xtb: 6.7.1 (edcfbbe)
C           -1.86134070290232        1.24105750626410        0.22737587813412
C           -1.20069205134782        0.07045237265571       -0.48817452177277
C           -0.13109145300525       -0.63653800616405        0.35160892612053
C            1.03549971294474        0.27025041644417        0.77498831266880
C            1.74992569317093        0.92661417668879       -0.40222491147817
O            0.31975073965188       -1.73495804455175       -0.42251751640640
H           -1.15460818297241        2.05003461374168        0.39226895386179
H           -2.68211135487257        1.62416294280206       -0.37366246749270
H           -2.25755103422142        0.92533148408104        1.19019670479138
H           -1.95338748889478       -0.67952826405608       -0.74126817542440
H           -0.74680051832508        0.39950893378080       -1.42323978190169
H           -0.61317948276035       -1.01564035748752        1.27101411345299
H            0.65735510493978        1.03038445630871        1.45855376594301
H            1.75090627398102       -0.34218242886621        1.33085507439836
H            1.12080837362017        1.68001644788165       -0.86907553912664
H            2.66532481034326        1.40781261149023       -0.06493168408582
H            2.00412284504037        0.17779516436681       -1.14977067791801
H            0.98379787119124       -2.22910303953893        0.07691134306346
18
 energy: -20.894819431303 gnorm: 0.001038507089 xtb: 6.7.1 (edcfbbe)
C           -1.86860096789019        1.23602734945331        0.22984827539525
C           -1.19895445975823        0.07370387269339       -0.48966429012187
C           -0.13057376198987       -0.63145209218069        0.35105150492037
C            1.03563024688329        0.27506302526774        0.77347192590191
C            1.75590479767463        0.92286041507318       -0.40369805386416
O            0.32292749273881       -1.73275110320164       -0.42219496193810
H           -1.16772426085808        2.04906325986940        0.39896639711230
H           -2.69133984195563        1.61625731425223       -0.37007406495372
H           -2.26372522437825        0.91378287727345        1.19095009440625
H           -1.94636077937835       -0.67884054930846       -0.75072640458707
H           -0.74327228052768        0.41114066124699       -1.42086855916518
H           -0.61202259920772       -1.01318291261220        1.26887173587427
H            0.65569333548364        1.04002309427031        1.45086314317357
H            1.74727036477136       -0.33511746271979        1.33673397755088
H            1.13953743618876        1.69091926362092       -0.86364755859751
H            2.68232675739104        1.38417322376191       -0.06931425120092
H            1.99112568707441        0.17326262602514       -1.15655228436524
H            0.97888721331945       -2.22946187694397        0.08489117128680
18
 energy: -20.894825181237 gnorm: 0.000784242138 xtb: 6.7.1 (edcfbbe)
C           -1.87457607858100        1.23289157676964        0.23167828817265
C           -1.19746431829197        0.07673443049392       -0.49095661871179
C           -0.12994626171902       -0.62793916115107        0.35085488787580
C            1.03641828309844        0.27800744649483        0.77337120114932
C            1.76001011686324        0.91980826523585       -0.40520856379151
O            0.32458294220349       -1.73065955297542       -0.42135754842193
H           -1.17813023118714        2.04854648798108        0.40507924698798
H           -2.69801354222168        1.61078747369816       -0.36833656266151
H           -2.26954282891681        0.90452108389817        1.19054057590745
H           -1.94072157862968       -0.67765185064030       -0.75817347583927
H           -0.73967723692514        0.42042098722921       -1.41864257098513
H           -0.61195183064210       -1.00999174960302        1.26783372540126
H            0.65593093846996        1.04598600775528        1.44682005477636
H            1.74578443958519       -0.33125814110080        1.34013966710749
H            1.15167549846948        1.69612226376901       -0.86113974466245
H            2.69299207069145        1.36861514678146       -0.07343138725853
H            1.98298689016707        0.16897623862640       -1.16014799569388
H            0.97637188314763       -2.22844596742120        0.08998461747553
18
 energy: -20.894827865484 gnorm: 0.000432499297 xtb: 6.7.1 (edcfbbe)
C           -1.87690396169497        1.23198921553807        0.23227567000248
C           -1.19679224474139        0.07806762958337       -0.49149430487535
C           -0.12998350567928       -0.62709882401001        0.35130521922140
C            1.03708973788331        0.27836505191157        0.77339382122424
C            1.76139022597426        0.91880095848943       -0.40598426183110
O            0.32393349315968       -1.73019665216834       -0.42003671326584
H           -1.18194986566558        2.04819306113313        0.40863830035002
H           -2.69968496126473        1.60960562307547       -0.36871769423216
H           -2.27308355469038        0.90083216297764        1.18955952225306
H           -1.93853446137329       -0.67677125694576       -0.76121875907914
H           -0.73779483132241        0.42412456982082       -1.41755724892780
H           -0.61293506655891       -1.00773290410827        1.26848549192485
H            0.65757549722145        1.04705294220019        1.44633246221971
H            1.74604789776840       -0.33129826960911        1.33997008928143
H            1.15422776667170        1.69577174745470       -0.86160087638349
H            2.69528368722423        1.36558420479780       -0.07509804562036
H            1.98204862050794        0.16699987976005       -1.16030884172902
H            0.97679468216138       -2.22681815405956        0.09096396629491
18
 energy: -20.894830751105 gnorm: 0.000498623976 xtb: 6.7.1 (edcfbbe)
C           -1.87997476043926        1.23071650342163        0.23295923011117
C           -1.19594300792867        0.07981588972206       -0.49218845046198
C           -0.13012781811429       -0.62580573716256        0.35186707298969
C            1.03831230612006        0.27837171415859        0.77324034841305
C            1.76284713155124        0.91737025816489       -0.40720740408840
O            0.32207226600049       -1.73054634698043       -0.41741099730988
H           -1.18658836476157        2.04715030619703        0.41446694417030
H           -2.70108682759239        1.60920946616219       -0.36979348507157
H           -2.27907604811706        0.89588717116887        1.18772584018435
H           -1.93563299811596       -0.67565637417235       -0.76563034825741
H           -0.73514482135996        0.42914753666930       -1.41603226152863
H           -0.61426270974407       -1.00377658123900        1.26967295730559
H            0.66056537698920        1.04787481709510        1.44619941549498
H            1.74684590343456       -0.33231819842759        1.33924148243186
H            1.15622282769178        1.69484098022177       -0.86279301005136
H            2.69746372279092        1.36294959080795       -0.07679312826927
H            1.98200761737982        0.16449278628661       -1.16094024195248
H            0.97822935979657       -2.22425279625286        0.09232383271785
18
 energy: -20.894832815049 gnorm: 0.000432840158 xtb: 6.7.1 (edcfbbe)
C           -1.88308563195971        1.22917392471934        0.23383006185126
C           -1.19508274852911        0.08161059426776       -0.49270436389763
C           -0.13076692649383       -0.62450937175629        0.35275957158566
C            1.03935795390152        0.27826539041593        0.77233228772349
C            1.76464830592855        0.91582090262091       -0.40843001532370
O            0.31953186477146       -1.73145839255165       -0.41435298868212
H           -1.19093796988640        2.04529176421588        0.42171979925831
H           -2.70176131048050        1.60964340540538       -0.37106403520453
H           -2.28630298120646        0.89044636631435        1.18554486866913
H           -1.93258745540622       -0.67449388967412       -0.77024079256191
H           -0.73259982518873        0.43448713173377       -1.41435809585246
H           -0.61583232123339       -0.99992441652077        1.27127564241824
H            0.66335773656779        1.04874465050446        1.44524685290381
H            1.74729603615521       -0.33322413459431        1.33833512206501
H            1.15857253050798        1.69325140938867       -0.86479819580751
H            2.69944572748605        1.36137763170782       -0.07844945015049
H            1.98360357304484        0.16237613970025       -1.16158863585770
H            0.97987259760234       -2.22140812005618        0.09385016369099
18
 energy: -20.894833792955 gnorm: 0.000215414279 xtb: 6.7.1 (edcfbbe)
C           -1.88531402639771        1.22796666639584        0.23457411529204
C           -1.19461934366004        0.08278054975487       -0.49296724899141
C           -0.13079218024954       -0.62334885397811        0.35293586937850
C            1.04012242882632        0.27864485563522        0.77189390167268
C            1.76581677962893        0.91444793702887       -0.40934539219884
O            0.31811662400752       -1.73192516820320       -0.41264838565177
H           -1.19389296361460        2.04355828197787        0.42745516499489
H           -2.70191634776695        1.61035557072597       -0.37192550581158
H           -2.29185931663777        0.88639213262492        1.18386698740469
H           -1.93057138821832       -0.67381024285704       -0.77337701115812
H           -0.73106025027896        0.43812464611755       -1.41311554948818
H           -0.61613798005279       -0.99724620272127        1.27193053712612
H            0.66472720609008        1.05013373635959        1.44410190683385
H            1.74740198816891       -0.33295444992413        1.33871614650523
H            1.16058239199849        1.69236229294371       -0.86631338141901
H            2.70103495684763        1.35948830716131       -0.07937806518094
H            1.98441411428193        0.16038396730209       -1.16218832843630
H            0.98067646260827       -2.21988304050284        0.09469203595599
18
 energy: -20.894834329260 gnorm: 0.000126371498 xtb: 6.7.1 (edcfbbe)
C           -1.88651402877031        1.22724874231252        0.23515094530925
C           -1.19447584351339        0.08334729521989       -0.49297173158285
C           -0.13087094514261       -0.62275912062016        0.35308077922771
C            1.04027081001509        0.27916081089442        0.77147518492378
C            1.76678647541991        0.91365197837516       -0.40980866568418
O            0.31788812566214       -1.73170338023662       -0.41221555739463
H           -1.19532477526524        2.04230356021530        0.43107553484462
H           -2.70169122032561        1.61104493448084       -0.37238874568937
H           -2.29524773762173        0.88404596300955        1.18291966666431
H           -1.92964616361566       -0.67353710801122       -0.77463834290375
H           -0.73059761370451        0.43994900720149       -1.41249326052653
H           -0.61611992120667       -0.99645823220413        1.27220222283083
H            0.66474708137633        1.05138993477020        1.44279442429768
H            1.74701005384374       -0.33209637891527        1.33937231034801
H            1.16225465030931        1.69179300633204       -0.86746647080465
H            2.70231240586790        1.35833475086205       -0.07990339763215
H            1.98515297378408        0.15905824380890       -1.16229033081203
H            0.98079482846864       -2.21930302165377        0.09501323141180
18
 energy: -20.894834798872 gnorm: 0.000140317042 xtb: 6.7.1 (edcfbbe)
C           -1.88738481025542        1.22677279603922        0.23572573408786
C           -1.19457687950461        0.08365391416361       -0.49283508612602
C           -0.13071544912224       -0.62229752517656        0.35294934060193
C            1.04027666454917        0.27984242816843        0.77128939257813
C            1.76767551500137        0.91294461552912       -0.41011557627878
O            0.31821036994860       -1.73112799058766       -0.41258904504990
H           -1.19617983091288        2.04118640075513        0.43417928357092
H           -2.70123921123327        1.61194122949039       -0.37272854711088
H           -2.29806905642300        0.88233873345762        1.18219200225515
H           -1.92932650626896       -0.67344991586062       -0.77502076334406
H           -0.73077508286051        0.44097532600886       -1.41211706546259
H           -0.61569846498924       -0.99630333378647        1.27204474478188
H            0.66432838750882        1.05283489340962        1.44149860975119
H            1.74649724827728       -0.33085073472957        1.34042852745127
H            1.16372370686597        1.69074544811308       -0.86903189746118
H            2.70301864602523        1.35780577834291       -0.08011143362299
H            1.98647222330330        0.15771873633915       -1.16176799234907
H            0.98049168567180       -2.21925981383507        0.09491756855498
18
 energy: -20.894835098699 gnorm: 0.000112547934 xtb: 6.7.1 (edcfbbe)
C           -1.88818156951675        1.22640801271713        0.23625214830063
C           -1.19475125939930        0.08390297072567       -0.49271812593797
C           -0.13050551020891       -0.62188710606737        0.35276849847274
C            1.04025090702548        0.28056078083933        0.77117163343866
C            1.76860147530200        0.91238665147342       -0.41034604972148
O            0.31884783906893       -1.73021466003505       -0.41323995974174
H           -1.19700004978666        2.04035172576461        0.43663591724064
H           -2.70101492844143        1.61254325134019       -0.37294724665056
H           -2.30034163252117        0.88096152162621        1.18169430592063
H           -1.92918263764700       -0.67345169718426       -0.77509813027261
H           -0.73116288536534        0.44175478872498       -1.41191076741753
H           -0.61520885667459       -0.99641115419651        1.27177878530939
H            0.66389735621893        1.05424264895755        1.44029679667870
H            1.74598650649274       -0.32962369712618        1.34140731647935
H            1.16502189827834        1.68981185379564       -0.87045144571619
H            2.70388680924019        1.35731772144313       -0.08012393929900
H            1.98759282723893        0.15615295218988       -1.16101152628187
H            0.97999286627703       -2.21933557914718        0.09474958602606
18
 energy: -20.894835216058 gnorm: 0.000049728818 xtb: 6.7.1 (edcfbbe)
C           -1.88870888489511        1.22622669240829        0.23655515249269
C           -1.19482366885757        0.08413221385320       -0.49267860798018
C           -0.13039372699436       -0.62163416026202        0.35265072895032
C            1.04029496091262        0.28087069709423        0.77115071003415
C            1.76915940501421        0.91199636748982       -0.41050569646630
O            0.31910051061188       -1.72976309423106       -0.41355969300725
H           -1.19765900065998        2.04004268930319        0.43788710369256
H           -2.70114365673186        1.61271453454441       -0.37295080808169
H           -2.30147565659137        0.88017236822471        1.18150414911479
H           -1.92903900470728       -0.67336294334319       -0.77525132987739
H           -0.73132371952119        0.44236712477943       -1.41176644478271
H           -0.61504123310430       -0.99629725598804        1.27162520336107
H            0.66381832801000        1.05490668431077        1.43978007314699
H            1.74576595829606       -0.32915995541875        1.34186255150328
H            1.16566005473209        1.68886850137611       -0.87156174258831
H            2.70406452947960        1.35741960065885       -0.08010303772562
H            1.98880369682923        0.15532476014432       -1.16043463423315
H            0.97967026375876       -2.21935383910306        0.09470411927458
18
 energy: -20.894835284277 gnorm: 0.000040038133 xtb: 6.7.1 (edcfbbe)
C           -1.88903649166982        1.22608909517100        0.23671970262979
C           -1.19483577494677        0.08429647465422       -0.49272019122814
C           -0.13034490840919       -0.62146929854638        0.35256858757330
C            1.04035345500772        0.28102502688204        0.77111144103732
C            1.76952217655860        0.91182554466607       -0.41055660395647
O            0.31914025238887       -1.72954756976506       -0.41368128065257
H           -1.19821921158040        2.04004591807725        0.43826330186103
H           -2.70153206551335        1.61247266792115       -0.37276300193340
H           -2.30177291095793        0.87972730810745        1.18156110015894
H           -1.92887750715902       -0.67328240973492       -0.77551983524195
H           -0.73132787741873        0.44283093019638       -1.41167955683805
H           -0.61502255076072       -0.99612984945228        1.27152843144564
H            0.66389770322257        1.05527280531561        1.43949138964806
H            1.74568014015150       -0.32896461285460        1.34203642669498
H            1.16604131075485        1.68840888666421       -0.87210591161981
H            2.70427312122338        1.35747961593770       -0.08002997536483
H            1.98943586297655        0.15481374731986       -1.16006647883330
H            0.97935443171328       -2.21942329471851        0.09475025144729
