
                                 *****************
                                 * O   R   C   A *
                                 *****************

                                            #,                                       
                                            ###                                      
                                            ####                                     
                                            #####                                    
                                            ######                                   
                                           ########,                                 
                                     ,,################,,,,,                         
                               ,,#################################,,                 
                          ,,##########################################,,             
                       ,#########################################, ''#####,          
                    ,#############################################,,   '####,        
                  ,##################################################,,,,####,       
                ,###########''''           ''''###############################       
              ,#####''   ,,,,##########,,,,          '''####'''          '####       
            ,##' ,,,,###########################,,,                        '##       
           ' ,,###''''                  '''############,,,                           
         ,,##''                                '''############,,,,        ,,,,,,###''
      ,#''                                            '''#######################'''  
     '                                                          ''''####''''         
             ,#######,   #######,   ,#######,      ##                                
            ,#'     '#,  ##    ##  ,#'     '#,    #''#        ,####,   ,####,        
            ##       ##  ##   ,#'  ##            #'  '#       #'       #'  '#        
            ##       ##  #######   ##           ,######,      #####,   #    #        
            '#,     ,#'  ##    ##  '#,     ,#' ,#      #,     #,   #   #,  ,#        
             '#######'   ##     ##  '#######'  #'      '#     '####' # '####'        



                #########################################################
                #                        -***-                          #
                #          Department of theory and spectroscopy        #
                #                                                       #
                #                      Frank Neese                      #
                #                                                       #
                #     Directorship, Architecture, Infrastructure        #
                #                    SHARK, DRIVERS                     #
                #        Core code/Algorithms in most modules           #
                #                                                       #
                #        Max Planck Institute fuer Kohlenforschung      #
                #                Kaiser Wilhelm Platz 1                 #
                #                 D-45470 Muelheim/Ruhr                 #
                #                      Germany                          #
                #                                                       #
                #                  All rights reserved                  #
                #                        -***-                          #
                #########################################################


                         Program Version 6.0.0  -   RELEASE  -


 With contributions from (in alphabetic order):
   Daniel Aravena         : Magnetic Suceptibility
   Michael Atanasov       : Ab Initio Ligand Field Theory (pilot matlab implementation)
   Alexander A. Auer      : GIAO ZORA, VPT2 properties, NMR spectrum
   Ute Becker             : All parallelization in ORCA, NUMFREQ, NUMCALC
   Giovanni Bistoni       : ED, misc. LED, open-shell LED, HFLD
   Martin Brehm           : Molecular dynamics
   Dmytro Bykov           : pre 5.0 version of the SCF Hessian
   Marcos Casanova-Páez   : Triplet and SCS-CIS(D). UHF-(DLPNO)-IP/EA/STEOM-CCSD. UHF-CVS-IP/STEOM-CCSD
   Vijay G. Chilkuri      : MRCI spin determinant printing, contributions to CSF-ICE
   Pauline Colinet        : FMM embedding
   Dipayan Datta          : RHF DLPNO-CCSD density
   Achintya Kumar Dutta   : EOM-CC, STEOM-CC
   Nicolas Foglia         : Exact transition moments, OPA infrastructure, MCD improvements
   Dmitry Ganyushin       : Spin-Orbit,Spin-Spin,Magnetic field MRCI
   Miquel Garcia          : C-PCM and meta-GGA Hessian, CCSD/C-PCM, Gaussian charge scheme
   Tiago L. C. Gouveia    : GS-ROHF, GS-ROCIS
   Yang Guo               : DLPNO-NEVPT2, F12-NEVPT2, CIM, IAO-localization
   Andreas Hansen         : Spin unrestricted coupled pair/coupled cluster methods
   Ingolf Harden          : AUTO-CI MPn and infrastructure 
   Benjamin Helmich-Paris : MC-RPA, TRAH-(SCF,CASSCF), AVAS, COSX integrals, SCF dyn. polar.
   Lee Huntington         : MR-EOM, pCC
   Robert Izsak           : Overlap fitted RIJCOSX, COSX-SCS-MP3, EOM
   Riya Kayal             : Wick's Theorem for AUTO-CI, AUTO-CI UHF-CCSDT
   Emily Kempfer          : AUTO-CI, RHF CISDT and CCSDT
   Christian Kollmar      : KDIIS, OOCD, Brueckner-CCSD(T), CCSD density, CASPT2, CASPT2-K, improved NEVPT2
   Axel Koslowski         : Symmetry handling
   Simone Kossmann        : Meta GGA functionals, TD-DFT gradient, OOMP2, (MP2 Hessian; deprecated post 5.0)
   Lucas Lang             : DCDCAS
   Marvin Lechner         : AUTO-CI (C++ implementation), FIC-MRCC
   Spencer Leger          : CASSCF response
   Dagmar Lenk            : GEPOL surface, SMD, ORCA-2-JSON
   Dimitrios Liakos       : Extrapolation schemes; Compound Job, initial MDCI parallelization
   Dimitrios Manganas     : Further ROCIS development; embedding schemes. LFT, Crystal Embedding
   Dimitrios Pantazis     : SARC Basis sets
   Anastasios Papadopoulos: AUTO-CI, single reference methods and gradients
   Taras Petrenko         : pre 6.0 DFT Hessian and TD-DFT gradient, (ASA, deprecated), ECA, 1-Electron XAS/XES, NRVS
   Peter Pinski           : DLPNO-MP2, DLPNO-MP2 Gradient
   Christoph Reimann      : Effective Core Potentials
   Marius Retegan         : Local ZFS, SOC
   Christoph Riplinger    : Optimizer, TS searches, QM/MM, DLPNO-CCSD(T), (RO)-DLPNO pert. Triples
   Michael Roemelt        : Original ROCIS implementation
   Masaaki Saitow         : Open-shell DLPNO-CCSD energy and density
   Barbara Sandhoefer     : DKH picture change effects
   Kantharuban Sivalingam : CASSCF convergence/infrastructure, NEVPT2 and variants, FIC-MRCI
   Bernardo de Souza      : ESD, SOC TD-DFT
   Georgi Stoychev        : AutoAux, RI-MP2 NMR, DLPNO-MP2 response, X2C
   Van Anh Tran           : RI-MP2 g-tensors
   Willem Van den Heuvel  : Paramagnetic NMR
   Zikuan Wang            : NOTCH, Electric field optimization 
   Frank Wennmohs         : Technical directorship and infrastructure
   Hang Xu                : AUTO-CI-Response properties 


 We gratefully acknowledge several colleagues who have allowed us to
 interface, adapt or use parts of their codes:
   Stefan Grimme, W. Hujo, H. Kruse, P. Pracht,  : VdW corrections, initial TS optimization,
                  C. Bannwarth, S. Ehlert,         DFT functionals, gCP, sTDA/sTD-DF
                  L. Wittmann, M. Mueller
   Ed Valeev, F. Pavosevic, A. Kumar             : LibInt (2-el integral package), F12 methods
   Garnet Chan, S. Sharma, J. Yang, R. Olivares  : DMRG
   Ulf Ekstrom                                   : XCFun DFT Library
   Mihaly Kallay                                 : mrcc  (arbitrary order and MRCC methods)
   Frank Weinhold                                : gennbo (NPA and NBO analysis)
   Simon Mueller                                 : openCOSMO-RS
   Christopher J. Cramer and Donald G. Truhlar   : smd solvation model
   Lars Goerigk                                  : TD-DFT with DH, B97 family of functionals
   V. Asgeirsson, H. Jonsson                     : NEB implementation
   FAccTs GmbH                                   : IRC, NEB, NEB-TS, DLPNO-Multilevel, CI-OPT
                                                   MM, QMMM, 2- and 3-layer-ONIOM, Crystal-QMMM,
                                                   LR-CPCM, SF, NACMEs, symmetry and pop. for TD-DFT,
                                                   nearIR, NL-DFT gradient (VV10), updates on ESD,
                                                   ML-optimized integration grids, MBIS, APM,
                                                   GOAT, DOCKER, SOLVATOR, interface openCOSMO-RS
   S Lehtola, MJT Oliveira, MAL Marques          : LibXC Library
   Liviu Ungur et al                             : ANISO software


 Your calculation uses the libint2 library for the computation of 2-el integrals
 For citations please refer to: http://libint.valeyev.net

 Your ORCA version has been built with support for libXC version: 6.2.2
 For citations please refer to: https://libxc.gitlab.io

 This ORCA versions uses:
   CBLAS   interface :  Fast vector & matrix operations
   LAPACKE interface :  Fast linear algebra routines
   SCALAPACK package :  Parallel linear algebra routines
   Shared memory     :  Shared parallel matrices
   BLAS/LAPACK       :  OpenBLAS 0.3.27  USE64BITINT DYNAMIC_ARCH NO_AFFINITY SkylakeX SINGLE_THREADED
        Core in use  :  SkylakeX
   Copyright (c) 2011-2014, The OpenBLAS Project


Your calculation utilizes the geometrical counterpoise correction gCP
Please cite in your paper:
H.Kruse, S. Grimme J.Chem.Phys., 136, (2012), 154101 
   

Your calculation utilizes the atom-pairwise dispersion correction
based on EEQ partial charges (D4)


================================================================================

----- Orbital basis set information -----
Your calculation utilizes the basis: def2-mTZVPP
   Stefan Grimme, Andreas Hansen, Sebastian Ehlert, and Jan-Michael Mewes 
   J. Chem. Phys. 154, 064103 (2021). DOI: 10.1063/5.0040021

----- AuxJ basis set information -----
Your calculation utilizes the auxiliary basis: def2/J
   F. Weigend, Phys. Chem. Chem. Phys. 8, 1057 (2006).

================================================================================
                                        WARNINGS
                       Please study these warnings very carefully!
================================================================================

Using LibXC functional ID 497 : Re-regularized SCAN exchange by Furness et al
[ 1]  J. W. Furness, A. D. Kaplan, J. Ning, J. P. Perdew, and J. Sun.,  J. Phys. Chem. Lett. 11, 8208-8215 (2020)
[ 2]  J. W. Furness, A. D. Kaplan, J. Ning, J. P. Perdew, and J. Sun.,  J. Phys. Chem. Lett. 11, 9248-9248 (2020)
Using LibXC functional ID 498 : Re-regularized SCAN correlation by Furness et al
[ 1]  J. W. Furness, A. D. Kaplan, J. Ning, J. P. Perdew, and J. Sun.,  J. Phys. Chem. Lett. 11, 8208-8215 (2020)
[ 2]  J. W. Furness, A. D. Kaplan, J. Ning, J. P. Perdew, and J. Sun.,  J. Phys. Chem. Lett. 11, 9248-9248 (2020)
Using LibXC functional ID 497 : Re-regularized SCAN exchange by Furness et al
[ 1]  J. W. Furness, A. D. Kaplan, J. Ning, J. P. Perdew, and J. Sun.,  J. Phys. Chem. Lett. 11, 8208-8215 (2020)
[ 2]  J. W. Furness, A. D. Kaplan, J. Ning, J. P. Perdew, and J. Sun.,  J. Phys. Chem. Lett. 11, 9248-9248 (2020)
Using LibXC functional ID 498 : Re-regularized SCAN correlation by Furness et al
[ 1]  J. W. Furness, A. D. Kaplan, J. Ning, J. P. Perdew, and J. Sun.,  J. Phys. Chem. Lett. 11, 8208-8215 (2020)
[ 2]  J. W. Furness, A. D. Kaplan, J. Ning, J. P. Perdew, and J. Sun.,  J. Phys. Chem. Lett. 11, 9248-9248 (2020)

================================================================================
                                       INPUT FILE
================================================================================
NAME = sp_gas.inp
|  1> ! r2scan-3c def2/J RI DEFGRID2 scfconv6 printgap
|  2> %output
|  3>     printlevel normal
|  4> end
|  5> * xyz 0 1
|  6> C -1.3564000159 -0.4229181944 -0.3784119328
|  7> C 0.0044337443 -0.0763740351 0.2521466517
|  8> C 1.1430218591 -0.7516682801 -0.5191022401
|  9> O 2.3843151905 -0.5763760536 0.1166307347
| 10> O 0.251418324 1.3195760164 0.2137363305
| 11> O -2.4222096555 0.2571486136 0.2453566674
| 12> H -1.5506369916 -1.4880751509 -0.2435738732
| 13> H -1.3266407843 -0.1988510596 -1.4502344246
| 14> H 0.0209872255 -0.4280914455 1.292322941
| 15> H 1.1717867541 -0.3394492979 -1.5360473088
| 16> H 0.9722998264 -1.8276125642 -0.5712867961
| 17> H 2.5295034491 0.3751255242 0.2300647725
| 18> H -0.2898847839 1.7572962135 0.8844173872
| 19> H -2.4269502322 1.1773529772 -0.0540596051
| 20> *
| 21> 
| 22>                          ****END OF INPUT****
================================================================================

                       ****************************
                       * Single Point Calculation *
                       ****************************

---------------------------------
CARTESIAN COORDINATES (ANGSTROEM)
---------------------------------
  C     -1.356400   -0.422918   -0.378412
  C      0.004434   -0.076374    0.252147
  C      1.143022   -0.751668   -0.519102
  O      2.384315   -0.576376    0.116631
  O      0.251418    1.319576    0.213736
  O     -2.422210    0.257149    0.245357
  H     -1.550637   -1.488075   -0.243574
  H     -1.326641   -0.198851   -1.450234
  H      0.020987   -0.428091    1.292323
  H      1.171787   -0.339449   -1.536047
  H      0.972300   -1.827613   -0.571287
  H      2.529503    0.375126    0.230065
  H     -0.289885    1.757296    0.884417
  H     -2.426950    1.177353   -0.054060

----------------------------
CARTESIAN COORDINATES (A.U.)
----------------------------
  NO LB      ZA    FRAG     MASS         X           Y           Z
   0 C     6.0000    0    12.011   -2.563225   -0.799200   -0.715095
   1 C     6.0000    0    12.011    0.008379   -0.144326    0.476488
   2 C     6.0000    0    12.011    2.159998   -1.420447   -0.980961
   3 O     8.0000    0    15.999    4.505703   -1.089193    0.220400
   4 O     8.0000    0    15.999    0.475112    2.493637    0.403903
   5 O     8.0000    0    15.999   -4.577313    0.485940    0.463657
   6 H     1.0000    0     1.008   -2.930279   -2.812055   -0.460288
   7 H     1.0000    0     1.008   -2.506988   -0.375774   -2.740546
   8 H     1.0000    0     1.008    0.039660   -0.808976    2.442136
   9 H     1.0000    0     1.008    2.214356   -0.641466   -2.902709
  10 H     1.0000    0     1.008    1.837380   -3.453687   -1.079576
  11 H     1.0000    0     1.008    4.780069    0.708885    0.434759
  12 H     1.0000    0     1.008   -0.547803    3.320809    1.671307
  13 H     1.0000    0     1.008   -4.586271    2.224875   -0.102158

--------------------------------
INTERNAL COORDINATES (ANGSTROEM)
--------------------------------
 C      0   0   0     0.000000000000     0.00000000     0.00000000
 C      1   0   0     1.539339308188     0.00000000     0.00000000
 C      2   1   0     1.532067252309   110.58232620     0.00000000
 O      3   2   1     1.405593438551   111.94084026   186.55157576
 O      2   1   3     1.418151360634   111.37495355   118.72188401
 O      1   2   3     1.409797261241   112.24050742   184.25370065
 H      1   2   3     1.091085994331   109.05832746    66.65914398
 H      1   2   3     1.095397255196   109.31407514   307.58543775
 H      2   1   3     1.098155666261   109.22173631   240.13437523
 H      3   2   1     1.097692662462   108.68247200    64.31340084
 H      3   2   1     1.090653631004   110.03445080   304.68527306
 H      4   3   2     0.969176023188   107.91873619   304.13728378
 H      5   2   1     0.966654594665   109.23319505    74.90633868
 H      6   1   2     0.967702768464   108.99668572    76.37224044

---------------------------
INTERNAL COORDINATES (A.U.)
---------------------------
 C      0   0   0     0.000000000000     0.00000000     0.00000000
 C      1   0   0     2.908929719654     0.00000000     0.00000000
 C      2   1   0     2.895187525613   110.58232620     0.00000000
 O      3   2   1     2.656186654498   111.94084026   186.55157576
 O      2   1   3     2.679917688045   111.37495355   118.72188401
 O      1   2   3     2.664130728098   112.24050742   184.25370065
 H      1   2   3     2.061853717843   109.05832746    66.65914398
 H      1   2   3     2.070000820170   109.31407514   307.58543775
 H      2   1   3     2.075213461646   109.22173631   240.13437523
 H      3   2   1     2.074338511269   108.68247200    64.31340084
 H      3   2   1     2.061036669564   110.03445080   304.68527306
 H      4   3   2     1.831477259389   107.91873619   304.13728378
 H      5   2   1     1.826712450014   109.23319505    74.90633868
 H      6   1   2     1.828693211435   108.99668572    76.37224044

---------------------
BASIS SET INFORMATION
---------------------
There are 3 groups of distinct atoms

 Group   1 Type C   : 11s6p1d contracted to 5s3p1d pattern {62111/411/1}
 Group   2 Type O   : 11s6p2d contracted to 5s3p2d pattern {62111/411/11}
 Group   3 Type H   : 4s1p contracted to 2s1p pattern {31/1}

Atom   0C    basis set group =>   1
Atom   1C    basis set group =>   1
Atom   2C    basis set group =>   1
Atom   3O    basis set group =>   2
Atom   4O    basis set group =>   2
Atom   5O    basis set group =>   2
Atom   6H    basis set group =>   3
Atom   7H    basis set group =>   3
Atom   8H    basis set group =>   3
Atom   9H    basis set group =>   3
Atom  10H    basis set group =>   3
Atom  11H    basis set group =>   3
Atom  12H    basis set group =>   3
Atom  13H    basis set group =>   3
---------------------------------
AUXILIARY/J BASIS SET INFORMATION
---------------------------------
There are 3 groups of distinct atoms

 Group   1 Type C   : 12s5p4d2f1g contracted to 6s4p3d1f1g pattern {711111/2111/211/2/1}
 Group   2 Type O   : 12s5p4d2f1g contracted to 6s4p3d1f1g pattern {711111/2111/211/2/1}
 Group   3 Type H   : 5s2p1d contracted to 3s1p1d pattern {311/2/1}

Atom   0C    basis set group =>   1
Atom   1C    basis set group =>   1
Atom   2C    basis set group =>   1
Atom   3O    basis set group =>   2
Atom   4O    basis set group =>   2
Atom   5O    basis set group =>   2
Atom   6H    basis set group =>   3
Atom   7H    basis set group =>   3
Atom   8H    basis set group =>   3
Atom   9H    basis set group =>   3
Atom  10H    basis set group =>   3
Atom  11H    basis set group =>   3
Atom  12H    basis set group =>   3
Atom  13H    basis set group =>   3

Checking for AutoStart:
The File: sp_gas.gbw exists
Trying to determine its content:
     ... Fine, the file contains calculation information
     ... Fine, the calculation information was read
     ... Fine, the file contains a basis set
     ... Fine, the basis set was read
     ... Fine, the file contains a geometry
     ... Fine, the geometry was read
     ... Fine, the file contains a set of orbitals
     ... Fine, the orbitals can be read
     => possible old guess file was deleted
     => GBW file was renamed to GES file
     => GES file is set as startup file
     => Guess is set to MORead
     ... now leaving AutoStart

------------------------------------------------------------------------------
                             ORCA STARTUP CALCULATIONS
                           -- RI-GTO INTEGRALS CHOSEN --
------------------------------------------------------------------------------
------------------------------------------------------------------------------
                   ___                                                        
                  /   \      - P O W E R E D   B Y -                         
                 /     \                                                     
                 |  |  |   _    _      __       _____    __    __             
                 |  |  |  | |  | |    /  \     |  _  \  |  |  /  |          
                  \  \/   | |  | |   /    \    | | | |  |  | /  /          
                 / \  \   | |__| |  /  /\  \   | |_| |  |  |/  /          
                |  |  |   |  __  | /  /__\  \  |    /   |      \           
                |  |  |   | |  | | |   __   |  |    \   |  |\   \          
                \     /   | |  | | |  |  |  |  | |\  \  |  | \   \       
                 \___/    |_|  |_| |__|  |__|  |_| \__\ |__|  \__/        
                                                                              
                      - O R C A' S   B I G   F R I E N D -                    
                                      &                                       
                       - I N T E G R A L  F E E D E R -                       
                                                                              
 v1 FN, 2020, v2 2021, v3 2022-2024                                           
------------------------------------------------------------------------------


----------------------
SHARK INTEGRAL PACKAGE
----------------------

Number of atoms                             ...     14
Number of basis functions                   ...    169
Number of shells                            ...     81
Maximum angular momentum                    ...      2
Integral batch strategy                     ... SHARK/LIBINT Hybrid
RI-J (if used) integral strategy            ... SPLIT-RIJ (Revised 2003 algorithm where possible)
Printlevel                                  ...      1
Contraction scheme used                     ... SEGMENTED contraction
Prescreening option                         ... SCHWARTZ
   Thresh                                   ... 1.000e-10
   Tcut                                     ... 1.000e-11
   Tpresel                                  ... 1.000e-11 
Coulomb Range Separation                    ... NOT USED
Exchange Range Separation                   ... NOT USED
Multipole approximations                    ... NOT USED
Finite Nucleus Model                        ... NOT USED
CABS basis                                  ... NOT available
Auxiliary Coulomb fitting basis             ... AVAILABLE
   # of basis functions in Aux-J            ...    382
   # of shells in Aux-J                     ...    130
   Maximum angular momentum in Aux-J        ...      4
Auxiliary J/K fitting basis                 ... NOT available
Auxiliary Correlation fitting basis         ... NOT available
Auxiliary 'external' fitting basis          ... NOT available

Checking pre-screening integrals            ... done (  0.0 sec) Dimension = 81
Check shell pair data                       ... done (  0.0 sec)
Shell pair information
Shell pair cut-off parameter TPreSel        ...   1.0e-11
Total number of shell pairs                 ...      3321
Shell pairs after pre-screening             ...      3089
Total number of primitive shell pairs       ...     11632
Primitive shell pairs kept                  ...      8074
          la=0 lb=0:    982 shell pairs
          la=1 lb=0:   1116 shell pairs
          la=1 lb=1:    333 shell pairs
          la=2 lb=0:    390 shell pairs
          la=2 lb=1:    224 shell pairs
          la=2 lb=2:     44 shell pairs

Calculating one electron integrals          ... done (  0.0 sec)
Calculating RI/J V-Matrix + Cholesky decomp.... done (  0.1 sec)
Calculating Nuclear repulsion               ... done (  0.0 sec) ENN=    260.540274182340 Eh

Diagonalization of the overlap matrix:
Smallest eigenvalue                        ... 2.331e-04
Time for diagonalization                   ...    0.003 sec
Threshold for overlap eigenvalues          ... 1.000e-07
Number of eigenvalues below threshold      ... 0
Time for construction of square roots      ...    0.013 sec
Total time needed                          ...    0.024 sec

-------------------
DFT GRID GENERATION
-------------------

General Integration Accuracy     IntAcc      ... 4.388
Radial Grid Type                 RadialGrid  ... OptM3 with GC (2021)
Angular Grid (max. ang.)         AngularGrid ... 4 (Lebedev-302)
Angular grid pruning method      GridPruning ... 4 (adaptive)
Weight generation scheme         WeightScheme... mBecke (2022)
Basis function cutoff            BFCut       ... 1.0000e-10
Integration weight cutoff        WCut        ... 1.0000e-14
Partially contracted basis set               ... off
Rotationally invariant grid construction     ... off
Angular grids for H and He will be reduced by one unit
Diffuse basis detected: some atoms will have their outermost
                        angular grid increased by 1.

Total number of grid points                  ...    62991
Total number of batches                      ...      991
Average number of points per batch           ...       63
Average number of grid points per atom       ...     4499
Initializing property integral containers    ... done (  0.0 sec)

SHARK setup successfully completed in   0.9 seconds

Maximum memory used throughout the entire STARTUP-calculation: 27.8 MB
-------------------------------------------------------------------------------
                                 ORCA GUESS
                   Start orbitals & Density for SCF / CASSCF
-------------------------------------------------------------------------------

------------
SCF SETTINGS
------------
Hamiltonian:
 Density Functional     Method          .... DFT(GTOs)
  Functional kind                       .... Exchange
  Functional name                       .... Re-regularized SCAN exchange by Furness et al
  Functional family                     .... MGGA
  Functional refs                              
    [ 0] J. W. Furness, A. D. Kaplan, J. Ning, J. P. Perdew, and J. Sun.,  J. Phys. Chem. Lett. 11, 8208-8215 (2020), doi: 10.1021/acs.jpclett.0c02405
    [ 1] J. W. Furness, A. D. Kaplan, J. Ning, J. P. Perdew, and J. Sun.,  J. Phys. Chem. Lett. 11, 9248-9248 (2020), doi: 10.1021/acs.jpclett.0c03077
  Functional external parameters        .... 6
    Parameter  0 _c1        =  6.670000e-01 : c1 parameter        
    Parameter  1 _c2        =  8.000000e-01 : c2 parameter        
    Parameter  2 _d         =  1.240000e+00 : d parameter         
    Parameter  3 _k1        =  6.500000e-02 : k1 parameter        
    Parameter  4 _eta       =  1.000000e-03 : eta parameter       
    Parameter  5 _dp2       =  3.610000e-01 : dp2 parameter       
  Functional kind                       .... Correlation
  Functional name                       .... Re-regularized SCAN correlation by Furness et al
  Functional family                     .... MGGA
  Functional refs                              
    [ 0] J. W. Furness, A. D. Kaplan, J. Ning, J. P. Perdew, and J. Sun.,  J. Phys. Chem. Lett. 11, 8208-8215 (2020), doi: 10.1021/acs.jpclett.0c02405
    [ 1] J. W. Furness, A. D. Kaplan, J. Ning, J. P. Perdew, and J. Sun.,  J. Phys. Chem. Lett. 11, 9248-9248 (2020), doi: 10.1021/acs.jpclett.0c03077
  Functional external parameters        .... 1
    Parameter  0 _eta       =  1.000000e-03 : Regularization parameter
 Gradients option       PostSCFGGA      .... off
 RI-approximation to the Coulomb term is turned on
   Number of AuxJ basis functions       .... 382


General Settings:
 Integral files         IntName         .... sp_gas
 Hartree-Fock type      HFTyp           .... RHF
 Total Charge           Charge          ....    0
 Multiplicity           Mult            ....    1
 Number of Electrons    NEL             ....   50
 Basis Dimension        Dim             ....  169
 Nuclear Repulsion      ENuc            ....    260.5402741823 Eh

Convergence Acceleration:
 AO-DIIS                CNVDIIS         .... on
   Start iteration      DIISMaxIt       ....    12
   Startup error        DIISStart       ....  0.200000
   # of expansion vecs  DIISMaxEq       ....     5
   Bias factor          DIISBfac        ....   1.050
   Max. coefficient     DIISMaxC        ....  10.000
 MO-DIIS                CNVKDIIS        .... off
 Trust-Rad. Augm. Hess. CNVTRAH         .... auto
   Auto Start mean grad. ratio tolernc. ....  1.125000
   Auto Start start iteration           ....     1
   Auto Start num. interpolation iter.  ....    10
   Max. Number of Micro iterations      ....    24
   Max. Number of Macro iterations      .... Maxiter - #DIIS iter
   Number of Davidson start vectors     ....     2
   Converg. threshold    (grad. norm)   ....   3.330e-04
   Grad. Scal. Fac. for Micro threshold ....   0.100
   Minimum threshold for Micro iter.    ....   1.000e-02
   NR start threshold (gradient norm)   ....   1.000e-04
   Initial trust radius                 ....   0.400
   Minimum AH scaling param. (alpha)    ....   1.000
   Maximum AH scaling param. (alpha)    .... 1000.000
   Quad. conv. algorithm                .... NR
   White noise on init. David. guess    .... on
   Maximum white noise                  ....   0.010
   Pseudo random numbers                .... off
   Inactive MOs                         .... canonical
   Orbital update algorithm             .... Taylor
   Preconditioner                       .... Diag
   Full preconditioner red. dimension   ....   250
   COSX micro iterations for RIJONX calc.... off
 SOSCF                  CNVSOSCF        .... on
   Start iteration      SOSCFMaxIt      ....   150
   Startup grad/error   SOSCFStart      ....  0.003300
   Hessian update       SOSCFHessUp     .... L-BFGS
 Level Shifting         CNVShift        .... on
   Level shift para.    LevelShift      ....    0.2500
   Turn off err/grad.   ShiftErr        ....    0.0010
 Zerner damping         CNVZerner       .... off
 Static damping         CNVDamp         .... on
   Fraction old density DampFac         ....    0.7000
   Max. Damping (<1)    DampMax         ....    0.9800
   Min. Damping (>=0)   DampMin         ....    0.0000
   Turn off err/grad.   DampErr         ....    0.1000

SCF Procedure:
 Maximum # iterations   MaxIter         ....   125
 SCF integral mode      SCFMode         .... Direct
   Integral package                     .... SHARK and LIBINT hybrid scheme
 Reset frequency        DirectResetFreq ....    20
 Integral Threshold     Thresh          ....  1.000e-10 Eh
 Primitive CutOff       TCut            ....  1.000e-11 Eh

Convergence Tolerance:
 Convergence Check Mode ConvCheckMode   .... Total+1el-Energy
 Convergence forced     ConvForced      .... 0
 Energy Change          TolE            ....  1.000e-06 Eh
 1-El. energy change                    ....  1.000e-03 Eh
 Orbital Gradient       TolG            ....  3.330e-04
 Orbital Rotation angle TolX            ....  3.330e-04
 DIIS Error             TolErr          ....  1.000e-06

---------------------
INITIAL GUESS: MOREAD
---------------------
Guess MOs are being read from file: sp_gas.ges
Input Geometry matches current geometry (good)
Atom 0: N(Shells)= 9 and 6 - projection required
Input basis set needs projection
NBasis(read)= 100
NBasis(calc)= 169
Basis set overlap was calculated
Using GuessMode=FMatrix for the initial guess
C*T matrix was formed
Effective Fockian was calculated
Effective Fockian was diagonalized
Initial density was built
                      ------------------
                      INITIAL GUESS DONE (   0.0 sec)
                      ------------------
             **** ENERGY FILE WAS UPDATED (sp_gas.en.tmp) ****
Finished Guess after   0.3 sec
Maximum memory used throughout the entire GUESS-calculation: 11.4 MB

-------------------------------------------------------------------------------------------
                                      ORCA LEAN-SCF
                              memory conserving SCF solver
-------------------------------------------------------------------------------------------

----------------------------------------D-I-I-S--------------------------------------------
Iteration    Energy (Eh)           Delta-E    RMSDP     MaxDP     DIISErr   Damp  Time(sec)
-------------------------------------------------------------------------------------------
               ***  Starting incremental Fock matrix formation  ***
    1    -344.5205914883287619     0.00e+00  3.78e-03  8.37e-02  6.28e-01  0.700   1.9
    2    -344.5835068595334292    -6.29e-02  3.18e-03  6.36e-02  4.41e-01  0.700   1.8
    3    -344.6281689639014871    -4.47e-02  2.37e-03  4.51e-02  3.09e-01  0.700   1.8
    4    -344.6595560089600099    -3.14e-02  1.70e-03  3.17e-02  2.17e-01  0.700   1.8
                               ***Turning on AO-DIIS***
    5    -344.6815908125066130    -2.20e-02  1.23e-03  2.25e-02  1.52e-01  0.700   1.7
    6    -344.6970486043809956    -1.55e-02  8.75e-04  1.60e-02  1.06e-01  0.700   1.8
    7    -344.7078928406907039    -1.08e-02  6.18e-04  1.13e-02  7.43e-02  0.700   1.7
    8    -344.7154958191876517    -7.60e-03  1.45e-03  2.67e-02  5.20e-02  0.000   1.7
                              *** Initializing SOSCF ***
---------------------------------------S-O-S-C-F--------------------------------------
Iteration    Energy (Eh)           Delta-E    RMSDP     MaxDP     MaxGrad    Time(sec)
--------------------------------------------------------------------------------------
    9    -344.7332731620908248    -1.78e-02  9.65e-06  1.40e-04  2.10e-04     1.8
               *** Restarting incremental Fock matrix formation ***
   10    -344.7332733062742705    -1.44e-07  9.63e-06  3.23e-04  3.15e-05     1.9
                  *** Gradient check signals convergence ***

               *****************************************************
               *                     SUCCESS                       *
               *           SCF CONVERGED AFTER  10 CYCLES          *
               *****************************************************

             **** ENERGY FILE WAS UPDATED (sp_gas.en.tmp) ****

----------------
TOTAL SCF ENERGY
----------------

Total Energy       :       -344.73327330627427 Eh           -9380.66927 eV

Components:
Nuclear Repulsion  :        260.54027418234040 Eh            7089.66129 eV
Electronic Energy  :       -605.27354748861467 Eh          -16470.33056 eV
One Electron Energy:       -987.60702924500674 Eh          -26874.15352 eV
Two Electron Energy:        382.33348175639202 Eh           10403.82296 eV

Virial components:
Potential Energy   :       -688.08886191718693 Eh          -18723.84983 eV
Kinetic Energy     :        343.35558861091266 Eh            9343.18056 eV
Virial Ratio       :          2.00401241378052

DFT components:
N(Alpha)           :       24.999988220644 electrons
N(Beta)            :       24.999988220644 electrons
N(Total)           :       49.999976441287 electrons
E(X)               :      -43.316090173957 Eh       
E(C)               :       -1.627970330351 Eh       
E(XC)              :      -44.944060504308 Eh       

---------------
SCF CONVERGENCE
---------------

  Last Energy change         ...    1.4418e-07  Tolerance :   1.0000e-06
  Last MAX-Density change    ...    3.2280e-04  Tolerance :   1.0000e-05
  Last RMS-Density change    ...    9.6266e-06  Tolerance :   1.0000e-06
  Last DIIS Error            ...    2.0962e-04  Tolerance :   1.0000e-06
  Last Orbital Gradient      ...    3.1542e-05  Tolerance :   3.3300e-04
  Last Orbital Rotation      ...    4.2240e-05  Tolerance :   3.3300e-04


----------------
ORBITAL ENERGIES
----------------

  NO   OCC          E(Eh)            E(eV) 
   0   2.0000     -18.967762      -516.1390 
   1   2.0000     -18.962492      -515.9957 
   2   2.0000     -18.947765      -515.5949 
   3   2.0000     -10.087817      -274.5035 
   4   2.0000     -10.084382      -274.4100 
   5   2.0000     -10.080666      -274.3089 
   6   2.0000      -1.014316       -27.6009 
   7   2.0000      -0.993396       -27.0317 
   8   2.0000      -0.980295       -26.6752 
   9   2.0000      -0.734819       -19.9954 
  10   2.0000      -0.641909       -17.4672 
  11   2.0000      -0.577523       -15.7152 
  12   2.0000      -0.512023       -13.9328 
  13   2.0000      -0.493449       -13.4274 
  14   2.0000      -0.463441       -12.6109 
  15   2.0000      -0.436508       -11.8780 
  16   2.0000      -0.401569       -10.9273 
  17   2.0000      -0.392788       -10.6883 
  18   2.0000      -0.378702       -10.3050 
  19   2.0000      -0.334098        -9.0913 
  20   2.0000      -0.316256        -8.6058 
  21   2.0000      -0.294636        -8.0175 
  22   2.0000      -0.279050        -7.5933 
  23   2.0000      -0.249401        -6.7866 
  24   2.0000      -0.228544        -6.2190 
  25   0.0000       0.028822         0.7843 
  26   0.0000       0.076749         2.0884 
  27   0.0000       0.079558         2.1649 
  28   0.0000       0.104475         2.8429 
  29   0.0000       0.122831         3.3424 
  30   0.0000       0.130816         3.5597 
  31   0.0000       0.136772         3.7218 
  32   0.0000       0.159331         4.3356 
  33   0.0000       0.179686         4.8895 
  34   0.0000       0.186471         5.0741 
  35   0.0000       0.196391         5.3441 
*Only the first 10 virtual orbitals were printed.

                    ********************************
                    * MULLIKEN POPULATION ANALYSIS *
                    ********************************

-----------------------
MULLIKEN ATOMIC CHARGES
-----------------------
   0 C :   -0.197357
   1 C :    0.077943
   2 C :   -0.203852
   3 O :   -0.417167
   4 O :   -0.452965
   5 O :   -0.423364
   6 H :    0.141926
   7 H :    0.136580
   8 H :    0.145108
   9 H :    0.138332
  10 H :    0.134555
  11 H :    0.314084
  12 H :    0.302048
  13 H :    0.304129
Sum of atomic charges:   -0.0000000

--------------------------------
MULLIKEN REDUCED ORBITAL CHARGES
--------------------------------
  0 C s       :     3.341188  s :     3.341188
      pz      :     0.982851  p :     2.798322
      px      :     0.822508
      py      :     0.992963
      dz2     :     0.014692  d :     0.057847
      dxz     :     0.011773
      dyz     :     0.004875
      dx2y2   :     0.016814
      dxy     :     0.009693

  1 C s       :     3.134334  s :     3.134334
      pz      :     1.061073  p :     2.722391
      px      :     0.927535
      py      :     0.733783
      dz2     :     0.011793  d :     0.065331
      dxz     :     0.008213
      dyz     :     0.012854
      dx2y2   :     0.017090
      dxy     :     0.015382

  2 C s       :     3.338000  s :     3.338000
      pz      :     0.974422  p :     2.807010
      px      :     0.776652
      py      :     1.055936
      dz2     :     0.014009  d :     0.058841
      dxz     :     0.015280
      dyz     :     0.004814
      dx2y2   :     0.015164
      dxy     :     0.009574

  3 O s       :     3.760057  s :     3.760057
      pz      :     1.780748  p :     4.643311
      px      :     1.445784
      py      :     1.416780
      dz2     :     0.003304  d :     0.013799
      dxz     :     0.002800
      dyz     :     0.001216
      dx2y2   :     0.006005
      dxy     :     0.000474

  4 O s       :     3.764430  s :     3.764430
      pz      :     1.671827  p :     4.669487
      px      :     1.741558
      py      :     1.256102
      dz2     :     0.003840  d :     0.019048
      dxz     :     0.005833
      dyz     :     0.000144
      dx2y2   :     0.004453
      dxy     :     0.004777

  5 O s       :     3.758036  s :     3.758036
      pz      :     1.757639  p :     4.648522
      px      :     1.588499
      py      :     1.302384
      dz2     :     0.002408  d :     0.016805
      dxz     :     0.004841
      dyz     :     0.003642
      dx2y2   :     0.004023
      dxy     :     0.001892

  6 H s       :     0.840684  s :     0.840684
      pz      :     0.003309  p :     0.017390
      px      :     0.002977
      py      :     0.011105

  7 H s       :     0.846158  s :     0.846158
      pz      :     0.011184  p :     0.017263
      px      :     0.002813
      py      :     0.003265

  8 H s       :     0.837892  s :     0.837892
      pz      :     0.010624  p :     0.017000
      px      :     0.003182
      py      :     0.003194

  9 H s       :     0.844583  s :     0.844583
      pz      :     0.010325  p :     0.017086
      px      :     0.002449
      py      :     0.004311

 10 H s       :     0.848034  s :     0.848034
      pz      :     0.003287  p :     0.017411
      px      :     0.002689
      py      :     0.011435

 11 H s       :     0.642983  s :     0.642983
      pz      :     0.011831  p :     0.042933
      px      :     0.009096
      py      :     0.022006

 12 H s       :     0.654598  s :     0.654598
      pz      :     0.017180  p :     0.043354
      px      :     0.015533
      py      :     0.010642

 13 H s       :     0.652762  s :     0.652762
      pz      :     0.012278  p :     0.043109
      px      :     0.009961
      py      :     0.020870


------------------------
MULLIKEN OVERLAP CHARGES
------------------------
B(  0-C ,  1-C ) :   0.3519 B(  0-C ,  4-O ) :  -0.1063 B(  0-C ,  5-O ) :   0.4628 
B(  0-C ,  6-H ) :   0.8334 B(  0-C ,  7-H ) :   0.9021 B(  0-C ,  8-H ) :  -0.0671 
B(  0-C , 13-H ) :  -0.0794 B(  1-C ,  2-C ) :   0.3120 B(  1-C ,  3-O ) :  -0.0970 
B(  1-C ,  4-O ) :   0.3589 B(  1-C ,  5-O ) :  -0.1309 B(  1-C ,  6-H ) :  -0.0695 
B(  1-C ,  7-H ) :  -0.1782 B(  1-C ,  8-H ) :   0.8109 B(  1-C ,  9-H ) :  -0.1446 
B(  1-C , 10-H ) :  -0.0561 B(  1-C , 12-H ) :  -0.0712 B(  2-C ,  3-O ) :   0.4613 
B(  2-C ,  4-O ) :  -0.1040 B(  2-C ,  9-H ) :   0.9016 B(  2-C , 10-H ) :   0.8060 
B(  2-C , 11-H ) :  -0.0873 B(  3-O ,  9-H ) :  -0.1138 B(  3-O , 10-H ) :  -0.1011 
B(  3-O , 11-H ) :   0.5957 B(  4-O ,  8-H ) :  -0.1147 B(  4-O , 12-H ) :   0.5904 
B(  5-O ,  6-H ) :  -0.0994 B(  5-O ,  7-H ) :  -0.1012 B(  5-O , 13-H ) :   0.5899 
B(  6-H ,  7-H ) :  -0.0597 B(  9-H , 10-H ) :  -0.0684 


                     *******************************
                     * LOEWDIN POPULATION ANALYSIS *
                     *******************************

----------------------
LOEWDIN ATOMIC CHARGES
----------------------
   0 C :    0.016463
   1 C :    0.066736
   2 C :    0.026518
   3 O :   -0.595416
   4 O :   -0.599660
   5 O :   -0.600763
   6 H :    0.181754
   7 H :    0.165373
   8 H :    0.175111
   9 H :    0.166558
  10 H :    0.182274
  11 H :    0.274989
  12 H :    0.272647
  13 H :    0.267416

-------------------------------
LOEWDIN REDUCED ORBITAL CHARGES
-------------------------------
  0 C s       :     2.875298  s :     2.875298
      pz      :     1.034086  p :     2.977769
      px      :     0.923755
      py      :     1.019928
      dz2     :     0.034478  d :     0.130469
      dxz     :     0.026314
      dyz     :     0.009488
      dx2y2   :     0.040117
      dxy     :     0.020072

  1 C s       :     2.850402  s :     2.850402
      pz      :     1.074109  p :     2.941891
      px      :     1.009561
      py      :     0.858220
      dz2     :     0.026136  d :     0.140971
      dxz     :     0.016995
      dyz     :     0.028440
      dx2y2   :     0.036815
      dxy     :     0.032587

  2 C s       :     2.869160  s :     2.869160
      pz      :     1.023347  p :     2.972608
      px      :     0.885116
      py      :     1.064145
      dz2     :     0.031645  d :     0.131714
      dxz     :     0.033767
      dyz     :     0.010056
      dx2y2   :     0.036449
      dxy     :     0.019797

  3 O s       :     3.517340  s :     3.517340
      pz      :     1.792070  p :     4.808049
      px      :     1.531398
      py      :     1.484582
      dz2     :     0.049224  d :     0.270027
      dxz     :     0.062267
      dyz     :     0.018094
      dx2y2   :     0.076420
      dxy     :     0.064022

  4 O s       :     3.510078  s :     3.510078
      pz      :     1.694862  p :     4.801133
      px      :     1.714914
      py      :     1.391358
      dz2     :     0.029200  d :     0.288449
      dxz     :     0.021985
      dyz     :     0.082984
      dx2y2   :     0.075190
      dxy     :     0.079089

  5 O s       :     3.519798  s :     3.519798
      pz      :     1.774429  p :     4.806559
      px      :     1.628699
      py      :     1.403430
      dz2     :     0.052268  d :     0.274406
      dxz     :     0.048846
      dyz     :     0.030137
      dx2y2   :     0.088502
      dxy     :     0.054654

  6 H s       :     0.778233  s :     0.778233
      pz      :     0.007421  p :     0.040013
      px      :     0.007486
      py      :     0.025107

  7 H s       :     0.793733  s :     0.793733
      pz      :     0.026334  p :     0.040894
      px      :     0.006773
      py      :     0.007786

  8 H s       :     0.784030  s :     0.784030
      pz      :     0.025813  p :     0.040859
      px      :     0.007162
      py      :     0.007884

  9 H s       :     0.793109  s :     0.793109
      pz      :     0.024194  p :     0.040333
      px      :     0.006081
      py      :     0.010057

 10 H s       :     0.778199  s :     0.778199
      pz      :     0.007090  p :     0.039527
      px      :     0.005814
      py      :     0.026624

 11 H s       :     0.603023  s :     0.603023
      pz      :     0.030740  p :     0.121988
      px      :     0.023386
      py      :     0.067863

 12 H s       :     0.604409  s :     0.604409
      pz      :     0.049592  p :     0.122944
      px      :     0.044182
      py      :     0.029169

 13 H s       :     0.610064  s :     0.610064
      pz      :     0.033466  p :     0.122520
      px      :     0.026085
      py      :     0.062969


---------------------------------
LOEWDIN BOND ORDERS (THRESH 0.050000)
---------------------------------
B(  0-C ,  1-C ) :   0.9401 B(  0-C ,  2-C ) :   0.0833 B(  0-C ,  4-O ) :   0.1558 
B(  0-C ,  5-O ) :   1.4494 B(  0-C ,  6-H ) :   0.8208 B(  0-C ,  7-H ) :   0.8294 
B(  1-C ,  2-C ) :   0.9416 B(  1-C ,  3-O ) :   0.1627 B(  1-C ,  4-O ) :   1.3890 
B(  1-C ,  5-O ) :   0.1655 B(  1-C ,  8-H ) :   0.7987 B(  2-C ,  3-O ) :   1.4558 
B(  2-C ,  4-O ) :   0.1621 B(  2-C ,  9-H ) :   0.8242 B(  2-C , 10-H ) :   0.8188 
B(  3-O ,  4-O ) :   0.0628 B(  3-O ,  9-H ) :   0.1030 B(  3-O , 10-H ) :   0.0977 
B(  3-O , 11-H ) :   0.9613 B(  4-O ,  5-O ) :   0.0652 B(  4-O ,  8-H ) :   0.0948 
B(  4-O , 12-H ) :   0.9642 B(  5-O ,  6-H ) :   0.0977 B(  5-O ,  7-H ) :   0.1009 
B(  5-O , 13-H ) :   0.9724 

------------------------------------------
LOEWDIN REDUCED ORBITAL POPULATIONS PER MO
-------------------------------------------
THRESHOLD FOR PRINTING IS 0.1%%
                      0         1         2         3         4         5   
                 -18.96776 -18.96249 -18.94777 -10.08782 -10.08438 -10.08067
                   2.00000   2.00000   2.00000   2.00000   2.00000   2.00000
                  --------  --------  --------  --------  --------  --------
 0 C  s               0.0       0.0       0.0       0.0      99.3       0.0
 1 C  s               0.0       0.0       0.0      99.3       0.0       0.0
 2 C  s               0.0       0.0       0.0       0.0       0.0      99.4
 3 O  s               0.0       0.0      99.9       0.0       0.0       0.0
 3 O  dxz             0.0       0.0       0.0       0.0       0.0       0.1
 3 O  dx2y2           0.0       0.0       0.0       0.0       0.0       0.1
 4 O  s              99.9       0.0       0.0       0.0       0.0       0.0
 4 O  py              0.0       0.0       0.0       0.1       0.0       0.0
 4 O  dx2y2           0.0       0.0       0.0       0.2       0.0       0.0
 5 O  s               0.0      99.9       0.0       0.0       0.0       0.0
 5 O  dxy             0.0       0.0       0.0       0.0       0.1       0.0

                      6         7         8         9        10        11   
                  -1.01432  -0.99340  -0.98029  -0.73482  -0.64191  -0.57752
                   2.00000   2.00000   2.00000   2.00000   2.00000   2.00000
                  --------  --------  --------  --------  --------  --------
 0 C  s               5.0       4.5       0.5      11.3      15.6       3.0
 0 C  pz              0.9       0.8       0.0       0.0       0.1       1.5
 0 C  px              0.3       4.8       0.8       5.0       0.1       2.3
 0 C  py              1.5       1.3       0.1       0.4       0.9       1.4
 0 C  dxz             0.0       0.2       0.0       0.1       0.0       0.1
 0 C  dxy             0.1       0.3       0.0       0.0       0.0       0.0
 1 C  s               8.7       0.8       0.6      18.0       0.1       9.3
 1 C  pz              0.1       0.0       0.1       1.6       0.1       2.3
 1 C  px              0.0       3.0       0.2       0.1       9.7       0.2
 1 C  py              4.3       0.8       3.8       4.6       0.1       0.7
 1 C  dz2             0.1       0.0       0.0       0.0       0.0       0.0
 1 C  dxz             0.0       0.0       0.0       0.0       0.2       0.0
 1 C  dx2y2           0.2       0.1       0.2       0.1       0.0       0.0
 1 C  dxy             0.0       0.0       0.0       0.0       0.1       0.0
 2 C  s               2.6       2.8       5.1      10.1      14.0       5.5
 2 C  pz              0.7       0.7       0.8       0.0       0.3       3.2
 2 C  px              0.1       1.5       5.8       5.8       0.4       1.6
 2 C  py              0.7       0.3       0.1       0.0       0.3       4.4
 2 C  dxz             0.0       0.1       0.3       0.1       0.0       0.1
 2 C  dx2y2           0.0       0.1       0.2       0.0       0.0       0.0
 3 O  s               5.1      14.3      40.7       2.5       2.7       0.1
 3 O  pz              0.0       0.1       0.2       0.3       1.6       2.6
 3 O  px              0.3       0.4       0.9       2.0       5.7       2.6
 3 O  py              0.1       0.2       0.6       0.6       2.6       5.2
 3 O  dz2             0.0       0.0       0.0       0.1       0.0       0.1
 3 O  dxz             0.0       0.0       0.1       0.2       0.6       0.6
 3 O  dx2y2           0.0       0.0       0.0       0.7       0.9       0.1
 3 O  dxy             0.0       0.0       0.0       0.0       0.0       0.3
 4 O  s              35.4       7.5      17.6       3.6       0.0       1.2
 4 O  pz              0.4       0.1       0.3       0.7       0.1       1.1
 4 O  px              0.5       0.1       0.3       0.1       0.5       0.6
 4 O  py              0.8       0.1       0.1       6.0       0.3      17.9
 4 O  dz2             0.2       0.0       0.0       0.4       0.0       0.3
 4 O  dyz             0.0       0.0       0.0       0.0       0.0       0.4
 4 O  dx2y2           0.1       0.1       0.0       1.2       0.1       0.5
 4 O  dxy             0.0       0.1       0.0       0.2       0.4       0.2
 5 O  s              16.2      39.2       5.5       2.1       2.4       0.2
 5 O  pz              0.3       0.7       0.1       0.1       0.6       0.5
 5 O  px              0.6       0.8       0.1       1.5       4.2       0.6
 5 O  py              0.0       0.1       0.0       1.9       8.2       4.3
 5 O  dxz             0.0       0.1       0.0       0.2       0.5       0.2
 5 O  dyz             0.0       0.0       0.0       0.1       0.4       0.2
 5 O  dx2y2           0.1       0.0       0.0       0.3       0.2       0.1
 5 O  dxy             0.0       0.1       0.0       0.4       0.6       0.1
 6 H  s               0.3       0.3       0.0       2.4       5.2       2.2
 6 H  py              0.0       0.0       0.0       0.2       0.4       0.1
 7 H  s               0.3       0.3       0.0       2.1       3.9       1.7
 7 H  pz              0.0       0.0       0.0       0.2       0.3       0.1
 8 H  s               0.6       0.1       0.0       3.0       0.0       4.0
 8 H  pz              0.0       0.0       0.0       0.3       0.0       0.3
 9 H  s               0.2       0.2       0.4       1.8       3.7       2.5
 9 H  pz              0.0       0.0       0.0       0.1       0.3       0.1
10 H  s               0.2       0.2       0.4       2.1       4.3       4.3
10 H  py              0.0       0.0       0.0       0.2       0.4       0.3
11 H  s               1.0       2.5       6.8       0.9       2.5       2.2
11 H  py              0.2       0.5       1.4       0.2       0.4       0.2
12 H  s               6.1       1.2       3.2       2.1       0.1       4.3
12 H  pz              0.6       0.1       0.3       0.2       0.0       0.3
12 H  px              0.4       0.1       0.2       0.2       0.0       0.2
12 H  py              0.4       0.1       0.2       0.0       0.0       0.0
13 H  s               2.9       6.7       0.9       1.0       3.2       1.0
13 H  pz              0.0       0.1       0.0       0.0       0.1       0.0
13 H  py              0.5       1.4       0.2       0.2       0.3       0.1

                     12        13        14        15        16        17   
                  -0.51202  -0.49345  -0.46344  -0.43651  -0.40157  -0.39279
                   2.00000   2.00000   2.00000   2.00000   2.00000   2.00000
                  --------  --------  --------  --------  --------  --------
 0 C  s               0.5       0.6       0.4       0.5       0.1       0.4
 0 C  pz             10.4       5.1       2.3       8.9       4.4       1.0
 0 C  px              0.0      12.5       0.5       2.4       2.8       1.6
 0 C  py              0.6       0.3       4.0      11.3      10.0      11.2
 0 C  dxz             0.0       0.4       0.0       0.0       0.0       0.1
 0 C  dyz             0.0       0.0       0.0       0.1       0.0       0.0
 0 C  dx2y2           0.0       0.0       0.0       0.1       0.0       0.2
 0 C  dxy             0.0       0.0       0.0       0.0       0.1       0.2
 1 C  s               1.8       0.3       0.1       0.1       0.1       0.0
 1 C  pz             17.3       0.6       0.0       0.6       3.7       0.7
 1 C  px              1.0       3.8       2.3      11.1       2.3       1.9
 1 C  py              5.6       4.1       5.3       1.5       0.6       0.3
 1 C  dz2             0.0       0.1       0.1       0.0       0.1       0.0
 1 C  dxz             0.0       0.1       0.1       0.0       0.0       0.0
 1 C  dx2y2           0.0       0.0       0.0       0.0       0.2       0.0
 1 C  dxy             0.0       0.0       0.0       0.0       0.2       0.2
 2 C  s               0.1       0.1       1.3       0.3       0.4       0.2
 2 C  pz              5.9       0.1       3.4      13.6       0.1       3.7
 2 C  px              0.3       1.7      10.1       0.5       0.5       8.8
 2 C  py              4.6       0.8       1.6       0.0       9.7      13.4
 2 C  dz2             0.0       0.0       0.1       0.0       0.1       0.0
 2 C  dxz             0.0       0.0       0.3       0.0       0.0       0.0
 2 C  dx2y2           0.0       0.0       0.2       0.0       0.0       0.3
 3 O  s               0.2       0.2       1.4       0.1       2.0       0.4
 3 O  pz              0.2       0.5       1.6       2.3       0.9      13.0
 3 O  px              0.8       2.2       5.0       3.3       7.0       4.1
 3 O  py              4.0       0.5      24.6       0.2       5.2       0.3
 3 O  dz2             0.0       0.0       0.1       0.4       0.0       0.6
 3 O  dxz             0.3       0.0       0.1       0.4       0.0       0.1
 3 O  dyz             0.0       0.0       0.0       0.0       0.1       0.2
 3 O  dx2y2           0.1       0.0       0.1       0.1       0.1       0.0
 3 O  dxy             0.2       0.1       0.0       0.1       0.3       0.7
 4 O  s               1.0       0.4       0.1       1.0       2.0       0.2
 4 O  pz             11.1       1.7       1.2       0.0       9.9       0.6
 4 O  px              2.6       4.4       1.2       9.3       0.3       0.2
 4 O  py              3.5       7.3       6.9       0.3       1.0       0.2
 4 O  dxz             0.2       0.0       0.1       0.1       0.1       0.2
 4 O  dyz             0.7       0.1       0.1       0.1       0.0       0.0
 4 O  dx2y2           0.1       0.0       0.0       0.1       0.0       0.0
 4 O  dxy             0.0       0.1       0.6       0.6       0.3       0.0
 5 O  s               0.2       1.2       1.3       0.1       1.3       0.2
 5 O  pz              1.9       0.3       1.6       1.6      10.1       4.9
 5 O  px              0.2       1.9       0.9       9.9       4.9       4.4
 5 O  py              0.9      31.5       3.3       0.5       0.1       1.9
 5 O  dz2             0.2       0.0       0.0       0.2       0.4       0.3
 5 O  dxz             0.5       0.1       0.2       0.1       0.1       0.1
 5 O  dyz             0.0       0.1       0.0       0.2       0.0       0.0
 5 O  dx2y2           0.0       0.1       0.1       1.0       0.1       0.2
 5 O  dxy             0.0       0.0       0.0       0.2       0.2       0.3
 6 H  s               0.0       0.0       0.7       5.7       4.6       6.8
 6 H  pz              0.0       0.0       0.0       0.1       0.0       0.0
 6 H  py              0.0       0.0       0.0       0.1       0.1       0.1
 7 H  s               4.3       3.0       2.1       2.8       3.4       0.4
 7 H  pz              0.2       0.1       0.1       0.1       0.1       0.0
 7 H  py              0.0       0.0       0.0       0.1       0.0       0.1
 8 H  s               9.5       0.1       0.1       0.3       2.4       0.2
 8 H  pz              0.4       0.0       0.0       0.0       0.0       0.0
 9 H  s               2.9       0.0       3.6       5.4       0.9       3.5
 9 H  pz              0.1       0.0       0.1       0.1       0.1       0.1
10 H  s               0.5       0.2       0.2       0.2       3.9       9.2
10 H  px              0.0       0.0       0.1       0.0       0.0       0.0
10 H  py              0.0       0.0       0.0       0.0       0.1       0.2
11 H  s               1.0       0.5       7.7       0.2       0.1       0.6
11 H  pz              0.0       0.0       0.0       0.0       0.0       0.2
11 H  px              0.0       0.0       0.0       0.0       0.1       0.0
11 H  py              0.0       0.1       0.2       0.0       0.0       0.1
12 H  s               3.6       3.2       1.2       0.1       1.8       0.0
12 H  px              0.1       0.0       0.1       0.1       0.0       0.0
13 H  s               0.3       8.4       0.6       0.7       0.0       0.6
13 H  pz              0.0       0.1       0.0       0.0       0.2       0.1
13 H  px              0.0       0.0       0.0       0.1       0.1       0.1
13 H  py              0.0       0.2       0.0       0.0       0.0       0.0

                     18        19        20        21        22        23   
                  -0.37870  -0.33410  -0.31626  -0.29464  -0.27905  -0.24940
                   2.00000   2.00000   2.00000   2.00000   2.00000   2.00000
                  --------  --------  --------  --------  --------  --------
 0 C  s               0.2       0.2       0.1       0.1       0.5       0.4
 0 C  pz              4.3       3.0       2.1       3.1       0.2       1.3
 0 C  px              3.3       0.5       0.5       2.1       1.3       2.1
 0 C  py              1.5       0.2       2.7       2.7       0.2       0.4
 0 C  dz2             0.0       0.0       0.2       0.6       0.3       0.3
 0 C  dxz             0.0       0.1       0.0       0.0       0.2       0.0
 0 C  dx2y2           0.1       0.2       0.4       0.1       0.1       0.4
 0 C  dxy             0.0       0.1       0.0       0.0       0.0       0.0
 1 C  s               0.0       0.4       0.9       0.2       0.5       1.3
 1 C  pz             11.6       5.5       0.6       2.5       0.5       5.7
 1 C  px              0.1       0.5       0.0       3.1       0.4       0.3
 1 C  py              5.4       1.0       3.4       0.0       0.6       0.5
 1 C  dz2             0.1       0.0       0.5       0.0       0.0       0.2
 1 C  dxz             0.0       0.0       0.0       0.2       0.0       0.0
 1 C  dyz             0.0       0.2       0.1       0.1       0.4       0.4
 1 C  dx2y2           0.5       0.0       0.0       0.0       0.1       0.0
 1 C  dxy             0.0       0.3       0.0       0.0       0.2       0.1
 2 C  s               0.4       0.2       0.5       0.1       0.0       0.2
 2 C  pz             10.2       1.5       2.4       0.1       0.1       1.7
 2 C  px              0.3       1.5       0.2       3.5       0.1       0.2
 2 C  py              6.4       0.9       3.2       6.2       0.0       0.4
 2 C  dz2             0.0       0.0       0.1       0.1       0.0       0.8
 2 C  dxz             0.0       0.0       0.1       0.0       0.0       0.1
 2 C  dyz             0.0       0.0       0.1       0.0       0.0       0.1
 2 C  dx2y2           0.3       0.0       0.3       0.1       0.0       0.2
 2 C  dxy             0.0       0.1       0.2       0.4       0.0       0.0
 3 O  s               0.2       0.2       3.0       2.7       0.1       0.0
 3 O  pz              0.3       2.4       0.3       4.9       2.7      29.6
 3 O  px              9.5       0.4      12.2       5.4       0.0       3.5
 3 O  py              0.0       0.2      15.7      12.6       1.3       0.3
 3 O  dz2             0.1       0.0       0.3       0.1       0.0       0.3
 3 O  dyz             0.2       0.0       0.1       0.2       0.0       0.0
 3 O  dx2y2           0.1       0.2       0.1       0.6       0.0       0.0
 3 O  dxy             0.2       0.0       0.4       0.5       0.2       0.0
 4 O  s               0.8       3.6       0.5       0.6       0.1       0.0
 4 O  pz              9.4       6.1       1.2       2.5      22.5      13.0
 4 O  px              0.1      23.2       5.3       2.1      21.2       7.4
 4 O  py             13.8       3.2       6.0       0.5       1.1       0.4
 4 O  dz2             0.3       0.0       0.1       0.0       0.0       0.0
 4 O  dyz             0.7       0.8       0.0       0.4       0.2       0.5
 4 O  dx2y2           0.0       0.2       0.7       0.1       0.1       0.1
 4 O  dxy             0.0       0.2       0.2       0.3       0.0       0.2
 5 O  s               0.0       3.3       1.3       1.5       0.1       0.0
 5 O  pz              2.3       6.1       0.4      12.3      25.1       9.3
 5 O  px              2.6      13.3       6.1       3.9      11.5       3.6
 5 O  py              0.0       7.9       4.0       1.6       2.1       0.8
 5 O  dz2             0.1       0.1       0.4       0.3       0.1       0.0
 5 O  dxz             0.0       0.0       0.0       0.1       0.1       0.0
 5 O  dyz             0.1       0.1       0.0       0.0       0.1       0.0
 5 O  dx2y2           0.1       0.2       0.4       0.8       0.0       0.2
 5 O  dxy             0.0       0.3       0.0       0.0       0.0       0.1
 6 H  s               0.8       0.9       4.5       3.3       0.1       0.5
 7 H  s               1.6       1.3       2.5       5.5       1.5       1.8
 8 H  s               2.9       3.3       4.7       1.5       2.1       4.0
 8 H  py              0.2       0.0       0.0       0.0       0.0       0.0
 9 H  s               2.6       0.3       2.5       1.5       0.1       5.2
 9 H  py              0.2       0.0       0.0       0.0       0.0       0.0
10 H  s               4.3       0.5       4.3       4.0       0.0       0.2
11 H  s               0.3       0.1       2.0       1.7       0.1       0.0
11 H  pz              0.0       0.0       0.0       0.1       0.1       0.5
11 H  px              0.1       0.0       0.3       0.2       0.0       0.0
12 H  s               0.1       2.2       0.1       0.7       0.0       0.1
12 H  pz              0.1       0.0       0.0       0.0       0.4       0.1
12 H  px              0.0       0.1       0.1       0.0       0.3       0.3
12 H  py              0.2       0.3       0.2       0.0       0.0       0.0
13 H  s               0.1       1.9       1.0       1.1       0.0       0.0
13 H  pz              0.0       0.0       0.0       0.1       0.5       0.1
13 H  px              0.0       0.2       0.1       0.1       0.2       0.1

                     24        25        26        27        28        29   
                  -0.22854   0.02882   0.07675   0.07956   0.10448   0.12283
                   2.00000   0.00000   0.00000   0.00000   0.00000   0.00000
                  --------  --------  --------  --------  --------  --------
 0 C  s               0.4       2.2       3.6       1.7       5.6       5.8
 0 C  pz              2.2       1.9       2.8       1.5       5.4       2.4
 0 C  px              3.4       3.8       3.2       6.3       4.2       4.7
 0 C  py              0.4       5.6       1.1       5.0       0.1      19.9
 0 C  dz2             0.1       0.0       0.3       0.3       0.1       0.0
 0 C  dxz             0.2       0.1       0.0       0.5       0.4       0.2
 0 C  dyz             0.0       0.2       0.1       0.2       0.1       0.2
 0 C  dx2y2           0.2       0.1       0.0       0.0       0.0       0.9
 0 C  dxy             0.0       1.0       0.0       0.2       0.4       0.5
 1 C  s               0.0       2.0       0.3       1.8       2.2       1.0
 1 C  pz              0.0       1.8       0.9       5.4       0.3       0.5
 1 C  px             10.2       0.2       6.3       0.2       0.4       0.5
 1 C  py              0.3       7.7       0.9       3.5       7.3       4.3
 1 C  dz2             0.0       0.0       0.0       1.1       0.4       0.0
 1 C  dxz             0.1       0.0       0.4       0.0       0.1       0.1
 1 C  dyz             0.0       0.1       0.1       0.0       0.0       0.1
 1 C  dx2y2           0.1       1.0       0.2       0.0       0.5       0.3
 1 C  dxy             0.3       0.0       0.0       0.0       0.1       0.3
 2 C  s               0.1       0.8       2.3       1.8      11.7       0.5
 2 C  pz              2.7       0.9       1.5       1.8       6.5       4.4
 2 C  px              1.3       1.7      12.6      10.1       0.1       0.1
 2 C  py              0.1       0.7       0.3       1.8       0.1       9.6
 2 C  dz2             0.3       0.0       0.0       0.5       0.2       0.1
 2 C  dxz             0.4       0.1       0.5       0.9       0.0       0.0
 2 C  dyz             0.0       0.0       0.0       0.1       0.3       0.1
 2 C  dx2y2           0.0       0.5       0.5       0.1       0.0       0.7
 2 C  dxy             0.0       0.1       0.3       0.0       0.0       0.0
 3 O  s               0.0       1.3       6.7       2.4       0.6       0.1
 3 O  pz             26.1       0.0       0.2       0.9       0.6       0.0
 3 O  px             11.1       0.7       1.4       1.4       1.3       0.6
 3 O  py              0.0       0.7       2.4       0.1       1.1       0.3
 3 O  dz2             0.3       0.3       0.1       0.1       0.0       0.0
 3 O  dxz             0.2       0.0       0.1       0.3       2.2       0.1
 3 O  dyz             0.1       0.0       0.1       0.0       0.8       0.8
 3 O  dx2y2           0.4       0.3       1.9       0.2       1.5       0.1
 3 O  dxy             0.0       0.0       0.3       0.8       0.2       0.3
 4 O  s               0.0       6.1       1.1       2.2       0.3       0.3
 4 O  pz              2.8       0.8       0.3       3.0       1.4       2.2
 4 O  px              6.3       2.3       2.4       1.2       0.7       0.0
 4 O  py              0.0       1.1       0.3       0.8       2.5       2.0
 4 O  dz2             0.0       0.1       0.0       2.4       0.8       0.0
 4 O  dxz             0.1       0.3       0.0       1.1       0.3       0.3
 4 O  dyz             0.0       0.7       0.1       0.9       0.0       0.2
 4 O  dx2y2           0.0       0.5       0.1       0.1       2.9       0.0
 4 O  dxy             0.5       0.6       0.0       0.1       0.4       0.7
 5 O  s               0.0       5.6       2.6       2.0       0.1       0.5
 5 O  pz             10.4       0.5       0.4       3.1       0.2       0.1
 5 O  px             10.4       2.1       0.7       0.7       0.7       0.8
 5 O  py              1.0       2.1       2.2       0.1       2.3       1.8
 5 O  dz2             0.2       0.2       0.1       0.1       0.0       0.2
 5 O  dxz             0.0       0.1       0.6       0.9       0.2       0.2
 5 O  dyz             0.1       0.1       1.6       0.2       3.6       0.7
 5 O  dx2y2           0.5       1.3       1.7       0.1       0.5       0.6
 5 O  dxy             0.2       0.1       0.0       1.4       0.1       0.5
 6 H  s               0.4       0.7       0.3       0.6       0.5      10.1
 6 H  pz              0.0       0.1       0.1       0.1       0.3       0.4
 6 H  px              0.0       0.3       0.1       0.1       0.3       0.4
 6 H  py              0.0       0.0       0.0       0.5       0.3       3.6
 7 H  s               1.2       0.2       2.3       0.5       4.6       0.3
 7 H  pz              0.0       0.0       0.9       0.0       1.6       0.0
 7 H  px              0.0       0.1       0.1       0.3       0.3       0.1
 7 H  py              0.0       0.3       0.2       0.2       0.2       0.6
 8 H  s               0.2       0.3       0.1       3.3       0.5       0.8
 8 H  pz              0.0       0.1       0.0       1.5       0.0       0.3
 8 H  px              0.1       0.0       0.3       0.0       0.1       0.1
 8 H  py              0.0       0.1       0.0       0.1       0.6       0.1
 9 H  s               2.5       0.1       0.2       0.7       7.5       0.0
 9 H  pz              0.0       0.0       0.0       0.0       2.3       0.2
 9 H  px              0.0       0.0       0.5       0.4       0.0       0.0
 9 H  py              0.0       0.1       0.2       0.0       0.7       0.2
10 H  s               0.0       1.1       0.5       1.3       1.0       3.7
10 H  pz              0.0       0.0       0.1       0.2       0.2       0.1
10 H  px              0.0       0.1       0.4       0.4       0.1       0.1
10 H  py              0.0       0.0       0.2       0.4       0.5       1.3
11 H  s               0.0       2.4      11.9       1.3       3.3       0.7
11 H  pz              0.5       0.0       0.1       0.1       0.0       0.0
11 H  px              0.2       0.0       0.2       0.2       0.0       0.0
11 H  py              0.0       0.6       3.1       0.4       0.9       0.1
12 H  s               0.1      13.7       0.5      10.7       0.2       3.7
12 H  pz              0.1       1.4       0.0       1.4       0.0       0.4
12 H  px              0.2       1.0       0.0       0.7       0.0       0.5
12 H  py              0.0       0.9       0.1       0.6       0.2       0.2
13 H  s               0.0      12.1       9.3       1.8       1.4       1.2
13 H  pz              0.2       0.2       0.3       0.0       0.2       0.0
13 H  px              0.2       0.0       0.0       0.1       0.0       0.0
13 H  py              0.0       2.8       2.2       0.6       0.2       0.2

                     30        31        32        33        34        35   
                   0.13082   0.13677   0.15933   0.17969   0.18647   0.19639
                   0.00000   0.00000   0.00000   0.00000   0.00000   0.00000
                  --------  --------  --------  --------  --------  --------
 0 C  s               2.3       3.8       1.0       0.6       0.3       0.5
 0 C  pz             16.3       1.5       1.1       3.0       2.8      13.9
 0 C  px              2.5       4.7       1.2       7.9       5.7       0.3
 0 C  py              3.5       1.8       0.4       6.2       5.1       7.9
 0 C  dz2             0.0       0.1       0.5       0.0       0.8       0.6
 0 C  dxz             0.2       0.4       0.6       0.4       0.1       0.0
 0 C  dyz             0.5       0.0       0.0       0.5       0.1       0.2
 0 C  dx2y2           0.0       0.0       0.0       1.5       0.1       0.0
 0 C  dxy             0.1       0.0       0.0       0.2       0.3       0.1
 1 C  s              10.2       0.4       0.1       1.8       1.3       1.2
 1 C  pz             11.0       1.2       0.9       7.4       3.3      15.3
 1 C  px              0.1       6.9       4.7       1.0       1.3       0.9
 1 C  py              6.7       0.1       3.9       7.5       1.8       1.3
 1 C  dz2             0.0       0.0       1.1       0.0       0.0       0.0
 1 C  dxz             0.0       1.1       0.4       0.1       0.8       0.1
 1 C  dyz             0.1       0.1       0.0       0.1       0.1       0.0
 1 C  dx2y2           1.0       0.3       0.1       0.7       0.3       0.6
 1 C  dxy             0.2       0.3       0.1       0.3       0.1       0.0
 2 C  s               1.3       4.7       1.5       0.5       0.7       0.7
 2 C  pz             12.7       1.5       5.1       3.4      11.0       3.3
 2 C  px              0.3       4.8       2.3       4.7       2.0       2.0
 2 C  py              0.8      19.0       0.5      12.9      12.2       0.9
 2 C  dz2             0.0       0.0       0.1       0.1       0.9       0.1
 2 C  dxz             0.0       0.3       0.2       0.3       0.2       0.1
 2 C  dyz             0.3       0.5       0.4       0.2       0.0       0.5
 2 C  dx2y2           0.0       0.3       0.8       0.3       1.1       0.2
 2 C  dxy             0.0       0.0       0.2       0.1       0.2       0.3
 3 O  s               0.0       0.0       0.1       0.6       0.4       0.2
 3 O  pz              0.1       0.3       2.4       0.4       0.1       0.2
 3 O  px              0.1       0.4       0.9       1.2       0.5       0.6
 3 O  py              0.1       3.8       2.2       0.1       1.1       1.0
 3 O  dz2             0.4       1.1       0.1       0.5       2.2       0.7
 3 O  dxz             0.1       0.7       0.1       0.2       2.0       0.1
 3 O  dyz             0.3       0.2       3.9       0.4       1.4       1.7
 3 O  dx2y2           0.0       0.4       0.6       1.0       0.7       0.8
 3 O  dxy             0.3       1.7       0.0       0.0       0.4       0.2
 4 O  s               1.7       0.0       0.1       1.5       0.0       0.0
 4 O  pz              0.1       0.1       0.9       0.8       0.1       0.3
 4 O  px              0.1       0.3       1.5       0.0       0.7       0.6
 4 O  py              3.6       0.3       2.6       2.0       0.5       1.2
 4 O  dz2             1.8       0.4       0.4       1.8       0.1       1.5
 4 O  dxz             0.1       1.5      11.2       0.5       1.1       1.1
 4 O  dyz             0.9       0.0       2.1       0.7       0.4       0.0
 4 O  dx2y2           1.4       1.3       0.1       0.3       0.2       1.2
 4 O  dxy             0.5       2.4       0.4       0.2       0.2       0.0
 5 O  s               0.1       0.0       0.0       0.1       0.2       0.0
 5 O  pz              0.0       0.4       0.4       0.1       0.2       0.1
 5 O  px              0.1       0.0       0.6       2.6       0.4       0.3
 5 O  py              0.3       2.0       2.0       0.5       1.1       3.3
 5 O  dz2             0.1       1.2       0.7       0.7       0.0       0.9
 5 O  dxz             0.8       2.3       0.5       1.6       0.7       0.7
 5 O  dyz             0.6       0.5       2.5       0.8       0.4       0.2
 5 O  dx2y2           0.4       0.4       1.0       0.5       0.1       0.9
 5 O  dxy             0.5       0.1       0.2       0.2       1.1       2.6
 6 H  s               0.5       0.1       2.0       5.0       3.8       1.7
 6 H  pz              0.3       0.0       0.0       0.5       0.1       0.3
 6 H  px              0.3       0.2       0.0       0.0       0.5       0.0
 6 H  py              0.2       0.1       0.5       0.2       1.0       1.3
 7 H  s               0.8       1.9       1.2       0.1       1.4       7.5
 7 H  pz              0.9       0.9       0.1       0.0       0.7       2.5
 7 H  px              0.0       0.3       0.3       0.7       0.1       0.1
 7 H  py              0.1       0.0       0.0       1.0       0.1       0.2
 8 H  s               5.2       0.1       2.0       0.4       0.4       3.5
 8 H  pz              2.3       0.1       0.6       0.0       0.0       1.8
 8 H  px              0.0       0.9       0.7       0.1       0.3       0.0
 8 H  py              1.3       0.0       0.2       0.7       0.3       0.0
 9 H  s               0.4       0.1       4.2       2.3       4.1       1.2
 9 H  pz              0.4       0.2       0.6       0.6       2.8       0.0
 9 H  px              0.0       0.2       0.3       0.4       0.1       0.0
 9 H  py              0.0       0.0       1.0       0.8       0.3       0.3
10 H  s               1.0       3.9       1.8       0.9       7.9       0.1
10 H  pz              0.3       0.2       0.7       0.2       0.1       0.2
10 H  px              0.0       0.1       0.0       0.1       0.2       0.3
10 H  py              0.3       2.4       0.6       0.2       2.1       0.0
11 H  s               0.2       6.7       5.6       1.4       1.2       0.8
11 H  px              0.0       0.1       0.0       0.0       0.0       0.0
11 H  py              0.0       1.5       1.2       0.4       0.4       0.3
12 H  s               0.1       0.0       5.8       0.2       1.7       1.2
12 H  pz              0.0       0.0       1.0       0.0       0.2       0.0
12 H  px              0.0       0.0       0.5       0.0       0.0       0.2
12 H  py              0.2       0.1       0.1       0.0       0.1       0.0
13 H  s               0.3       3.2       3.3       2.1       0.8       4.3
13 H  pz              0.0       0.1       0.2       0.0       0.1       0.0
13 H  px              0.0       0.0       0.0       0.0       0.0       0.1
13 H  py              0.1       0.7       0.7       0.5       0.1       1.0

                     36        37        38        39        40        41   
                   0.20626   0.22253   0.24274   0.25814   0.29832   0.30066
                   0.00000   0.00000   0.00000   0.00000   0.00000   0.00000
                  --------  --------  --------  --------  --------  --------
 0 C  s               4.5       0.0       3.9       1.8       4.1       0.7
 0 C  pz              1.8      25.4       0.9       4.9       0.1       2.6
 0 C  px              5.2       2.6       2.4       5.2      14.7       3.9
 0 C  py              0.1       0.4      11.3       2.2       0.6       9.7
 0 C  dz2             0.1       0.6       0.2       0.0       0.1       0.8
 0 C  dxz             0.2       0.0       0.0       0.8       0.0       0.2
 0 C  dyz             0.3       1.0       0.2       0.2       0.0       0.0
 0 C  dx2y2           0.3       0.0       0.4       0.1       0.0       0.6
 0 C  dxy             0.5       0.1       0.2       0.1       0.5       0.0
 1 C  s               0.4       0.3       4.4       0.0       1.8       1.4
 1 C  pz              3.2       0.7      12.8       0.8       0.7       1.0
 1 C  px              2.1       7.1       0.2       6.0       1.9       3.5
 1 C  py              2.1       0.4       0.1       2.1       8.2       4.4
 1 C  dz2             0.4       0.0       2.3       0.6       0.1       0.1
 1 C  dxz             0.2       0.6       0.1       0.1       0.5       0.7
 1 C  dyz             0.1       0.0       0.3       0.0       0.1       0.5
 1 C  dx2y2           0.0       0.0       0.8       0.1       0.0       0.2
 1 C  dxy             0.5       0.1       0.1       0.0       0.7       0.5
 2 C  s               4.8       0.0       4.6       2.4       0.6       3.3
 2 C  pz              6.7      16.7       5.0       6.7       2.2       0.0
 2 C  px              7.0       1.3       2.1       7.9       0.3      11.3
 2 C  py              0.5       2.5       0.7       5.2       8.8       5.1
 2 C  dz2             0.0       0.1       0.9       0.1       0.6       0.0
 2 C  dxz             0.8       0.2       0.1       0.1       0.0       0.0
[...]
 5 O  pz              0.0       2.6       1.4       1.4       0.2       0.2
 5 O  px              0.0       6.2       3.6       2.5       0.3       0.6
 5 O  py              0.1       0.9       0.4       0.2       6.4      11.7
 5 O  dz2             0.0       1.7       1.2       0.8       1.0       1.9
 5 O  dxz             0.0       5.7       2.7       2.5       0.1       0.4
 5 O  dyz             0.0       0.2       0.1       0.0       4.6       7.5
 5 O  dx2y2           0.0       0.0       0.1       0.1       8.3      14.6
 5 O  dxy             0.4       5.2       2.7       1.9       0.3       0.7
 6 H  s               0.1       0.1       0.1       0.0       0.1       0.1
 6 H  pz              0.1       0.1       0.2       0.1       0.0       0.0
 6 H  px              0.2       0.1       0.2       0.3       0.0       0.0
 6 H  py              0.3       0.0       0.2       0.0       0.1       0.1
 7 H  s               1.2       0.2       0.2       0.1       0.0       0.0
 7 H  pz              3.3       0.2       0.1       0.1       0.0       0.0
 7 H  px              0.0       0.0       0.0       0.2       0.0       0.0
 7 H  py              0.1       0.2       0.1       0.1       0.0       0.0
 8 H  s               7.5       0.0       0.5       0.1       0.0       0.0
 8 H  pz             15.2       0.2       0.7       0.2       0.0       0.0
 8 H  py              3.6       0.2       0.1       0.0       0.0       0.0
 9 H  s               2.6       0.1       0.0       0.3       0.0       0.0
 9 H  pz              6.1       0.1       0.0       0.3       0.0       0.0
 9 H  px              0.0       0.1       0.1       0.3       0.0       0.0
 9 H  py              0.7       0.1       0.0       0.2       0.0       0.0
10 H  s               0.3       0.1       0.0       0.2       0.0       0.0
10 H  pz              0.0       0.0       0.0       0.1       0.0       0.0
10 H  px              0.1       0.1       0.0       0.3       0.0       0.0
10 H  py              0.6       0.0       0.0       0.4       0.0       0.1
11 H  s               0.0       0.1       0.0       0.6       1.9       2.6
11 H  px              0.2       0.0       0.0       0.1       0.1       0.1
11 H  py              0.0       0.2       0.0       0.9       2.1       2.9
12 H  s               0.0       0.1       0.6       0.2       7.1       2.2
12 H  pz              0.1       0.0       0.4       0.2       4.0       1.5
12 H  px              0.0       0.0       0.2       0.0       2.6       0.9
12 H  py              0.0       0.1       0.4       0.0       1.5       0.6
13 H  s               0.0       0.3       0.2       0.3       4.9       8.1
13 H  pz              0.0       0.0       0.1       0.0       0.5       1.0
13 H  px              0.1       0.0       0.0       0.0       0.0       0.0
13 H  py              0.0       0.5       0.5       0.4       5.0       9.0

                    162       163       164       165       166       167   
                   4.60624  22.01910  22.03422  22.10649  43.56825  43.60508
                   0.00000   0.00000   0.00000   0.00000   0.00000   0.00000
                  --------  --------  --------  --------  --------  --------
 0 C  s               0.0      99.0       0.3       0.3       0.0       0.0
 1 C  s               0.2       0.3       0.4      99.0       0.0       0.0
 1 C  py              0.4       0.0       0.0       0.0       0.0       0.0
 1 C  dz2             0.1       0.0       0.0       0.0       0.0       0.0
 1 C  dx2y2           0.3       0.0       0.0       0.0       0.0       0.0
 2 C  s               0.1       0.3      98.9       0.3       0.0       0.0
 2 C  px              0.7       0.0       0.0       0.0       0.0       0.0
 2 C  py              0.2       0.0       0.0       0.0       0.0       0.0
 2 C  dxz             0.5       0.0       0.0       0.0       0.0       0.0
 2 C  dx2y2           0.8       0.0       0.0       0.0       0.0       0.0
 3 O  s               4.9       0.0       0.1       0.0       5.4      79.4
 3 O  pz              0.7       0.0       0.0       0.0       0.0       0.0
 3 O  px              1.5       0.0       0.0       0.0       0.0       0.0
 3 O  py             10.7       0.0       0.0       0.0       0.0       0.0
 3 O  dz2             4.5       0.0       0.0       0.0       0.0       0.0
 3 O  dxz             0.3       0.0       0.0       0.0       0.0       0.0
 3 O  dyz             0.6       0.0       0.0       0.0       0.0       0.0
 3 O  dx2y2          19.9       0.0       0.0       0.0       0.0       0.0
 3 O  dxy             0.6       0.0       0.0       0.0       0.0       0.0
 4 O  s               2.8       0.0       0.0       0.1      24.1       5.6
 4 O  pz              2.2       0.0       0.0       0.0       0.0       0.0
 4 O  px              1.2       0.0       0.0       0.0       0.0       0.0
 4 O  py              2.6       0.0       0.0       0.1       0.0       0.0
 4 O  dz2             1.2       0.0       0.0       0.0       0.0       0.0
 4 O  dxz             4.6       0.0       0.0       0.0       0.0       0.0
 4 O  dyz             2.9       0.0       0.0       0.0       0.0       0.0
 4 O  dx2y2           0.9       0.0       0.0       0.0       0.0       0.0
 4 O  dxy             2.6       0.0       0.0       0.0       0.0       0.0
 5 O  s               0.3       0.1       0.0       0.0      70.4      14.9
 5 O  py              0.4       0.0       0.0       0.0       0.0       0.0
 5 O  dz2             0.1       0.0       0.0       0.0       0.0       0.0
 5 O  dyz             0.3       0.0       0.0       0.0       0.0       0.0
 5 O  dx2y2           0.6       0.0       0.0       0.0       0.0       0.0
10 H  s               0.1       0.0       0.0       0.0       0.0       0.0
10 H  py              0.2       0.0       0.0       0.0       0.0       0.0
11 H  s               8.7       0.0       0.0       0.0       0.0       0.0
11 H  pz              0.1       0.0       0.0       0.0       0.0       0.0
11 H  px              0.2       0.0       0.0       0.0       0.0       0.0
11 H  py             10.3       0.0       0.0       0.0       0.0       0.0
12 H  s               4.3       0.0       0.0       0.0       0.0       0.0
12 H  pz              2.3       0.0       0.0       0.0       0.0       0.0
12 H  px              1.6       0.0       0.0       0.0       0.0       0.0
12 H  py              1.0       0.0       0.0       0.0       0.0       0.0
13 H  s               0.3       0.0       0.0       0.0       0.0       0.0
13 H  py              0.4       0.0       0.0       0.0       0.0       0.0

                    168   
                  43.70570
                   0.00000
                  --------
 3 O  s              15.1
 4 O  s              70.1
 5 O  s              14.6


                      *****************************
                      * MAYER POPULATION ANALYSIS *
                      *****************************

  NA   - Mulliken gross atomic population
  ZA   - Total nuclear charge
  QA   - Mulliken gross atomic charge
  VA   - Mayer's total valence
  BVA  - Mayer's bonded valence
  FA   - Mayer's free valence

  ATOM       NA         ZA         QA         VA         BVA        FA
  0 C      6.1974     6.0000    -0.1974     3.8391     3.8391    -0.0000
  1 C      5.9221     6.0000     0.0779     3.5394     3.5394    -0.0000
  2 C      6.2039     6.0000    -0.2039     3.9001     3.9001    -0.0000
  3 O      8.4172     8.0000    -0.4172     1.8273     1.8273     0.0000
  4 O      8.4530     8.0000    -0.4530     1.7907     1.7907    -0.0000
  5 O      8.4234     8.0000    -0.4234     1.8301     1.8301     0.0000
  6 H      0.8581     1.0000     0.1419     0.9567     0.9567    -0.0000
  7 H      0.8634     1.0000     0.1366     0.9553     0.9553     0.0000
  8 H      0.8549     1.0000     0.1451     0.9567     0.9567    -0.0000
  9 H      0.8617     1.0000     0.1383     0.9514     0.9514    -0.0000
 10 H      0.8654     1.0000     0.1346     0.9563     0.9563     0.0000
 11 H      0.6859     1.0000     0.3141     0.9058     0.9058    -0.0000
 12 H      0.6980     1.0000     0.3020     0.9132     0.9132     0.0000
 13 H      0.6959     1.0000     0.3041     0.9074     0.9074    -0.0000

  Mayer bond orders larger than 0.100000
B(  0-C ,  1-C ) :   0.8942 B(  0-C ,  5-O ) :   0.9666 B(  0-C ,  6-H ) :   0.9707 
B(  0-C ,  7-H ) :   0.9819 B(  1-C ,  2-C ) :   0.9310 B(  1-C ,  4-O ) :   0.8785 
B(  1-C ,  8-H ) :   0.9468 B(  2-C ,  3-O ) :   0.9697 B(  2-C ,  9-H ) :   0.9746 
B(  2-C , 10-H ) :   0.9680 B(  3-O , 11-H ) :   0.8763 B(  4-O , 12-H ) :   0.8901 
B(  5-O , 13-H ) :   0.8888 

-------
TIMINGS
-------

Total SCF time: 0 days 0 hours 0 min 18 sec 

Total time                  ....      18.231 sec
Sum of individual times     ....      17.716 sec  ( 97.2%)

SCF preparation             ....       0.188 sec  (  1.0%)
Fock matrix formation       ....      16.606 sec  ( 91.1%)
  Startup                   ....       0.065 sec  (  0.4% of F)
  Split-RI-J                ....       2.598 sec  ( 15.6% of F)
  XC integration            ....      13.369 sec  ( 80.5% of F)
    XC Preparation          ....       0.000 sec  (  0.0% of XC)
    Basis function eval.    ....       2.334 sec  ( 17.5% of XC)
    Density eval.           ....       3.834 sec  ( 28.7% of XC)
    XC-Functional eval.     ....       1.881 sec  ( 14.1% of XC)
    XC-Potential eval.      ....       4.414 sec  ( 33.0% of XC)
Diagonalization             ....       0.000 sec  (  0.0%)
Density matrix formation    ....       0.241 sec  (  1.3%)
Total Energy calculation    ....       0.035 sec  (  0.2%)
Population analysis         ....       0.091 sec  (  0.5%)
Orbital Transformation      ....       0.049 sec  (  0.3%)
Orbital Orthonormalization  ....       0.000 sec  (  0.0%)
DIIS solution               ....       0.458 sec  (  2.5%)
  MO trafo                  ....       0.000 sec  (  0.0 % of DIIS)
  Orb grad                  ....       0.000 sec  (  0.0 % of DIIS)
  Energy W gradient         ....       0.000 sec  (  0.0 % of DIIS)
  DIIS error                ....       0.008 sec  (  1.7 % of DIIS)
  DIIS work                 ....       0.390 sec  ( 85.0 % of DIIS)
  Form Q                    ....       0.000 sec  (  0.0 % of DIIS)
  Form QpQm                 ....       0.000 sec  (  0.0 % of DIIS)
  Exp/Cayley                ....       0.000 sec  (  0.0 % of DIIS)
  Orb update                ....       0.000 sec  (  0.0 % of DIIS)
  Wake-sleep                ....       0.035 sec  (  7.7 % of DIIS)
SOSCF solution              ....       0.048 sec  (  0.3%)
  MO trafo                  ....       0.039 sec  ( 81.4 % of SOSCF)
  Orb grad                  ....       0.001 sec  (  1.2 % of SOSCF)
  Rot update                ....       0.000 sec  (  0.1 % of SOSCF)
  Step                      ....       0.008 sec  ( 17.2 % of SOSCF)
Finished LeanSCF after  18.3 sec

Maximum memory used throughout the entire LEANSCF-calculation: 17.3 MB


-------------------------------------------------------------------------------
                          DFT DISPERSION CORRECTION                            
                                                                               
                                DFTD4 V3.4.0                                   
-------------------------------------------------------------------------------
The R2SCAN3C composite method is recognized
Using three-body term ABC
Active option DFTDOPT                   ...         5   

-------------------------   ----------------
Dispersion correction           -0.002981272
-------------------------   ----------------

------------------   -----------------
gCP correction             0.010525638
------------------   -----------------

-------------------------   --------------------
FINAL SINGLE POINT ENERGY      -344.725728940037
-------------------------   --------------------


------------------------------------------------------------------------------
                              ORCA PROPERTY CALCULATIONS
------------------------------------------------------------------------------

GBWName                                 ... sp_gas.gbw
Number of atoms                         ...     14
Number of basis functions               ...    169
Max core memory                         ...   1024 MB

Electric properties:
Dipole moment                           ... YES
Quadrupole moment                       ...  NO
Static polarizability (Dipole/Dipole)   ...  NO
Static polarizability (Dipole/Quad.)    ...  NO
Static polarizability (Quad./Quad.)     ...  NO
Static polarizability (Velocity)        ...  NO

Atomic electric properties:
Dipole moment                           ...  NO
Quadrupole moment                       ...  NO
Static polarizability                   ...  NO

Choice of electric origin               ... Center of mass
Position of electric origin             ...    -0.000004    -0.000016    -0.000010

General magnetic properties:
Magnetizability                         ...  NO

EPR properties:
g-Tensor (aka g-matrix)                 ...  NO
Zero-Field splitting spin-orbit         ...  NO
Zero-field splitting spin-spin          ...  NO
Hyperfine couplings                     ...  NO (   0 nuclei)
Quadrupole couplings                    ...  NO (   0 nuclei)
Contact density                         ...  NO (   0 nuclei)

NMR properties:
Chemical shifts                         ...  NO (   0 nuclei)
Spin-rotation constants                 ...  NO (   0 nuclei)
Spin-spin couplings                     ...  NO (   0 nuclei,    0 pairs)

Choice of magnetic origin               ... GIAO
Position of magnetic origin             ...     0.000000     0.000000     0.000000

Properties with geometric perturbations:
SCF Hessian                             ...  NO
IR spectrum                             ...  NO
VCD spectrum                            ...  NO
X-ray spectroscopy properties:
SCF XES/XAS/RIXS spectra                ...  NO


-------------
DIPOLE MOMENT
-------------

Method             : SCF
Type of density    : Electron Density
Multiplicity       :   1
Irrep              :   0
Energy             :  -344.7332733062742705 Eh
Relativity type    : 
Basis              : AO
                                X                 Y                 Z
Electronic contribution:      0.441198024       1.392034397       1.207342127
Nuclear contribution   :     -0.840749177      -0.897333969      -1.350297151
                        -----------------------------------------
Total Dipole Moment    :     -0.399551153       0.494700427      -0.142955024
                        -----------------------------------------
Magnitude (a.u.)       :      0.651771260
Magnitude (Debye)      :      1.656670885



--------------------
Rotational spectrum 
--------------------
 
Rotational constants in cm-1:             0.266100             0.065218             0.055973 
Rotational constants in MHz :          7977.480214          1955.178851          1678.015045 

Dipole components along the rotational axes: 
x,y,z [a.u.] :    -0.471300     0.347918    -0.285718 
x,y,z [Debye]:    -1.197950     0.884339    -0.726237 

 

Dipole moment calculation done in   0.0 sec 

Maximum memory used throughout the entire PROP-calculation: 9.8 MB

--------------------------------
SUGGESTED CITATIONS FOR THIS RUN
--------------------------------

Below you find a list of papers that are relevant to this ORCA run
We neither can nor want to force you to cite these papers, but we appreciate if you do
You receive ORCA, which is the product of decades of hard work by many enthusiastic individuals, for free
The only thing we kindly ask in return is that you cite our papers,
We deeply appreciate it, if you show your appreciation for ORCA by not just citing the generic ORCA reference.

Please note that relegating all ORCA citations to the supporting information does *not* help us.
SI sections are not indexed - citations you put there will not count into any citation statistics
But we need these citations in order to attract the funding resources that allow us to do what we are doing

Therefore, if you are a happy ORCA user, please consider citing a few of the papers listed below in the main body of your paper

In addition to the list printed below, the program has created the file sp_gas.bibtex that contains the list in bibtex format
You can import this file easily into all common literature databanks and citation aid programs


List of essential papers. We consider these as the minimum necessary citations

  1. Neese,F.
     Software update: the ORCA program system, version 5.0
     WIRES Comput. Molec. Sci., 2022 12(1)e1606
     doi.org/10.1002/wcms.1606
  2. Grimme,S.; Hansen,A.; Ehlert,S.; Mewes,J.
     r2SCAN-3c: A 'Swiss army knife' composite electronic-structure method
     J. Chem. Phys., 2021 154 064103
     doi.org/10.1063/5.0040021

List of papers to cite with high priority. The work reported in these papers was absolutely
necessary for this run to complete.
Our perspective: the developers of density functionals and basis sets usually get cited in chemistry papers
Good! But without the algorithms to do something with them, the functionals or basis sets would not do anything.
Hence, in our opinion, the algorithm design and method developments papers are equally worthy of getting cited

  1. Neese,F.
     An improvement of the resolution of the identity approximation for the formation of the Coulomb matrix
     J. Comp. Chem., 2003 24(14)1740-1747
     doi.org/10.1002/jcc.10318
  2. Neese,F.
     The SHARK Integral Generation and Digestion System
     J. Comp. Chem., 2022  1-16
     doi.org/10.1002/jcc.26942
  3. Lehtola,S.; Steigemann,C.; Oliveira,M.; Marques,M.
     Recent developments in Libxc - A comprehensive library of functionals for density functional theory
     Software X, 2018 7 
     doi.org/10.1016/j.softx.2017.11.002
  4. Caldeweyher,E.; Bannwarth,C.; Grimme,S.
     Extension of the D3 dispersion coefficient model
     J. Chem. Phys., 2017 147 034112-XXXX
     doi.org/10.1063/1.4993215
  5. Caldeweyher,E.; Ehlert,S.; Hansen,A.; Neugebauer,H.; Spicher,S.; Bannwarth,C.; Grimme,S.
     A generally applicable atomic-charge dependent London dispersion correction
     J. Chem. Phys., 2019 150 154122-XXXX
     doi.org/10.1063/1.5090222
  6. Caldeweyher,E.; Mewes,J.; Ehlert,S.; Grimme,S.
     Extension and evaluation of the D4 London-dispersion model for periodic systems
     Phys. Chem. Chem. Phys., 2020 22(16)8499-8512
     doi.org/10.1039/D0CP00502A

List of suggested additional citations. These are papers that are important in the 'surrounding' of 
of this run, or papers that preceded the highly important papers. If you like your results we are grateful for a citation.

  1. Neese,F.
     The ORCA program system
     WIRES Comput. Molec. Sci., 2012 2(1)73-78
     doi.org/10.1002/wcms.81
  2. Neese,F.
     Software update: the ORCA program system, version 4.0
     WIRES Comput. Molec. Sci., 2018 8(1)1-6
     doi.org/10.1002/wcms.1327
  3. Neese,F.; Wennmohs,F.; Becker,U.; Riplinger,C.
     The ORCA quantum chemistry program package
     J. Chem. Phys., 2020 152 Art. No. L224108
     doi.org/10.1063/5.0004608

List of optional additional citations

  1. Neese,F.
     Approximate second-order SCF convergence for spin unrestricted wavefunctions
     Chem. Phys. Lett., 2000 325(1-3)93-98
     doi.org/10.1016/s0009-2614(00)00662-x

Timings for individual modules:

Sum of individual times          ...       19.699 sec (=   0.328 min)
Startup calculation              ...        0.966 sec (=   0.016 min)   4.9 %
SCF iterations                   ...       18.620 sec (=   0.310 min)  94.5 %
Property calculations            ...        0.113 sec (=   0.002 min)   0.6 %
                             ****ORCA TERMINATED NORMALLY****
TOTAL RUN TIME: 0 days 0 hours 0 minutes 20 seconds 380 msec
