 Entering Gaussian System
 *********************************************
 Gaussian 98:
 frequency output generated by the xtb code
 *********************************************
                         Standard orientation:
 --------------------------------------------------------------------
  Center     Atomic     Atomic              Coordinates (Angstroms)
  Number     Number      Type              X           Y           Z
 --------------------------------------------------------------------
    1          6             0       -2.173516    0.022146   -1.214125
    2          6             0       -2.228969    0.277842    0.287032
    3          6             0       -1.218886   -0.511961    1.125981
    4          6             0        0.284056   -0.308206    0.869656
    5          6             0        0.861413   -1.175144   -0.259191
    6          6             0        2.159981   -0.464115   -0.622445
    7          6             0        1.756730    1.009199   -0.605577
    8          6             0        0.743941    1.129532    0.544687
    9          1             0       -1.253891    0.408333   -1.643916
   10          1             0       -2.241398   -1.043260   -1.423272
   11          1             0       -3.008249    0.519049   -1.704769
   12          1             0       -2.112777    1.346777    0.475832
   13          1             0       -3.223322    0.001442    0.648381
   14          1             0       -1.418273   -0.260700    2.171371
   15          1             0       -1.427416   -1.578334    1.006608
   16          1             0        0.791952   -0.619206    1.790092
   17          1             0        1.022351   -2.202897    0.065809
   18          1             0        0.195549   -1.189824   -1.119185
   19          1             0        2.914980   -0.654825    0.142344
   20          1             0        2.558670   -0.776878   -1.586589
   21          1             0        2.611492    1.670788   -0.471468
   22          1             0        1.280908    1.265452   -1.553592
   23          1             0        1.207301    1.581800    1.421651
   24          1             0       -0.087796    1.765624    0.253443
 --------------------------------------------------------------------
     1 basis functions        1 primitive gaussians
     1 alpha electrons        1 beta electrons
 
 Harmonic frequencies (cm**-1), IR intensities (km*mol⁻¹),
 Raman scattering activities (A**4/amu), Raman depolarization ratios,
 reduced masses (AMU), force constants (mDyne/A) and normal coordinates:
                      1                      2                      3
                        a                      a                      a 
 Frequencies --    27.1440                75.7706               144.8162
 Red. masses --     7.6471                 7.9434                 7.5215
 Frc consts  --     0.0000                 0.0000                 0.0000
 IR Inten    --     0.0041                 0.0244                 0.1000
 Raman Activ --     0.0000                 0.0000                 0.0000
 Depolar     --     0.0000                 0.0000                 0.0000
 Atom AN      X      Y      Z        X      Y      Z        X      Y      Z
   1   6     0.28   0.09  -0.12    -0.21  -0.45  -0.08    -0.50   0.05   0.02
   2   6     0.11   0.05  -0.12     0.07   0.12  -0.17     0.01   0.18   0.01
   3   6    -0.02   0.00  -0.01    -0.00   0.21   0.01    -0.01  -0.12  -0.25
   4   6     0.02  -0.07   0.17     0.03  -0.03   0.02     0.03  -0.04  -0.03
   5   6     0.06  -0.11   0.21    -0.11   0.10  -0.15     0.27  -0.06   0.10
   6   6    -0.14   0.09  -0.15    -0.07   0.04  -0.13     0.24   0.07   0.22
   7   6    -0.44   0.00  -0.23     0.07   0.07   0.17    -0.08  -0.03  -0.11
   8   6     0.12  -0.07   0.25     0.25  -0.04   0.33     0.08  -0.04   0.02
   9   1     0.11   0.01   0.00    -0.09  -0.16  -0.12    -0.12  -0.13  -0.07
  10   1     0.06   0.03  -0.05    -0.06  -0.15   0.10    -0.31   0.02   0.04
  11   1     0.11   0.06  -0.06    -0.09  -0.19  -0.03    -0.11   0.12   0.05
  12   1     0.04   0.01  -0.03     0.09   0.05  -0.17     0.12   0.04  -0.02
  13   1     0.02   0.02  -0.07     0.02   0.14   0.02     0.01   0.15   0.09
  14   1    -0.04   0.00  -0.01     0.01   0.14  -0.01    -0.02  -0.15  -0.05
  15   1    -0.02   0.00  -0.01    -0.04   0.06   0.08    -0.01  -0.02  -0.19
  16   1    -0.03  -0.03   0.07    -0.01  -0.09  -0.01    -0.03  -0.00   0.02
  17   1     0.10  -0.01   0.10    -0.05   0.01  -0.09     0.09  -0.01   0.05
  18   1    -0.02  -0.12   0.09    -0.04   0.08  -0.03     0.10  -0.04   0.00
  19   1     0.02   0.10  -0.08    -0.01  -0.05  -0.07     0.03   0.10   0.12
  20   1    -0.09   0.01  -0.06    -0.05   0.05  -0.06     0.14  -0.01   0.10
  21   1    -0.15   0.07  -0.22     0.04  -0.01   0.04    -0.07   0.07  -0.12
  22   1    -0.28  -0.08  -0.01    -0.01   0.08   0.08    -0.09  -0.12  -0.03
  23   1     0.19  -0.11   0.04     0.13  -0.10   0.11     0.07  -0.04  -0.00
  24   1     0.03   0.05   0.24     0.09   0.06   0.18     0.03   0.02   0.05
                      4                      5                      6
                        a                      a                      a 
 Frequencies --   219.6706               250.1398               291.9168
 Red. masses --     5.0022                 7.3292                 3.4957
 Frc consts  --     0.0000                 0.0000                 0.0000
 IR Inten    --     0.0507                 0.0651                 0.3014
 Raman Activ --     0.0000                 0.0000                 0.0000
 Depolar     --     0.0000                 0.0000                 0.0000
 Atom AN      X      Y      Z        X      Y      Z        X      Y      Z
   1   6     0.07   0.03   0.04     0.30  -0.16   0.18     0.00   0.00   0.05
   2   6    -0.11  -0.06   0.05     0.21   0.30   0.08     0.16   0.30   0.01
   3   6    -0.00   0.10   0.07    -0.06   0.01   0.09    -0.03  -0.06  -0.10
   4   6    -0.03  -0.04  -0.14    -0.09  -0.18  -0.16     0.00  -0.10   0.04
   5   6    -0.08   0.10  -0.27    -0.01  -0.04  -0.23     0.10  -0.10   0.10
   6   6     0.14  -0.00   0.34     0.02   0.10   0.10    -0.01   0.02  -0.07
   7   6    -0.13  -0.09  -0.17    -0.15   0.05   0.02    -0.05   0.01   0.06
   8   6     0.13  -0.04   0.05    -0.28  -0.11  -0.10    -0.18  -0.08  -0.06
   9   1    -0.08   0.24   0.01     0.19  -0.27   0.07    -0.20   0.35  -0.11
  10   1     0.28  -0.01   0.00    -0.12  -0.05   0.15     0.44  -0.05   0.12
  11   1    -0.10  -0.19   0.02     0.22   0.08  -0.05    -0.26  -0.41   0.05
  12   1    -0.10  -0.01   0.03     0.18   0.08  -0.04     0.13   0.08  -0.02
  13   1    -0.02  -0.08  -0.01     0.02   0.23   0.03     0.04   0.17   0.04
  14   1     0.05   0.10   0.01     0.04   0.02   0.03    -0.02  -0.10  -0.01
  15   1    -0.01   0.02   0.10    -0.10   0.02   0.03    -0.05   0.00  -0.13
  16   1     0.00  -0.07  -0.07     0.01  -0.06  -0.07    -0.01   0.00   0.03
  17   1    -0.13  -0.01  -0.16     0.00  -0.02  -0.10     0.08  -0.02   0.05
  18   1     0.05   0.17  -0.14     0.04   0.00  -0.10     0.01  -0.06   0.04
  19   1    -0.10   0.07   0.25    -0.05   0.05   0.09     0.04   0.00  -0.07
  20   1     0.22  -0.05   0.19     0.10   0.04   0.06    -0.05   0.03  -0.05
  21   1    -0.09   0.06  -0.19    -0.07   0.05   0.03    -0.02  -0.00   0.07
  22   1    -0.13  -0.18  -0.04    -0.02  -0.01  -0.01     0.02   0.04   0.01
  23   1     0.13  -0.09   0.00    -0.13  -0.01  -0.01    -0.11   0.03  -0.01
  24   1     0.05   0.05   0.11    -0.09  -0.06  -0.06    -0.07  -0.07  -0.07
                      7                      8                      9
                        a                      a                      a 
 Frequencies --   320.1374               348.0132               526.0735
 Red. masses --     7.3769                 7.9267                 7.1077
 Frc consts  --     0.0000                 0.0000                 0.0000
 IR Inten    --     0.5165                 2.0072                 6.2517
 Raman Activ --     0.0000                 0.0000                 0.0000
 Depolar     --     0.0000                 0.0000                 0.0000
 Atom AN      X      Y      Z        X      Y      Z        X      Y      Z
   1   6    -0.11   0.11  -0.02     0.19  -0.16   0.28     0.02  -0.03   0.01
   2   6    -0.27   0.01  -0.01    -0.39   0.11   0.17    -0.19   0.10  -0.02
   3   6    -0.06   0.34   0.13    -0.26  -0.04  -0.21    -0.12   0.06  -0.00
   4   6     0.00  -0.23  -0.13    -0.19   0.12  -0.17     0.10  -0.10   0.39
   5   6     0.33  -0.25  -0.01     0.09  -0.01   0.02     0.10   0.34   0.03
   6   6     0.17   0.10  -0.10     0.07   0.00  -0.10     0.29  -0.03  -0.15
   7   6     0.01   0.06   0.07     0.16   0.02  -0.04    -0.01  -0.15  -0.07
   8   6    -0.07  -0.20   0.00     0.21   0.07   0.02    -0.06  -0.21  -0.01
   9   1    -0.02   0.05   0.04     0.12  -0.06   0.20     0.04  -0.05   0.04
  10   1    -0.01   0.03  -0.03     0.12  -0.07   0.16    -0.01  -0.02   0.04
  11   1    -0.02   0.03  -0.02     0.12  -0.11  -0.10     0.05  -0.00  -0.07
  12   1    -0.19   0.02  -0.00    -0.12   0.03   0.06    -0.11   0.04  -0.00
  13   1    -0.05  -0.10  -0.01    -0.12   0.01   0.01    -0.05  -0.02  -0.03
  14   1     0.08   0.33   0.00    -0.05  -0.18  -0.02    -0.09  -0.05   0.00
  15   1    -0.11   0.09   0.27    -0.04  -0.00  -0.22    -0.05   0.03  -0.07
  16   1    -0.03  -0.07  -0.02    -0.11   0.02  -0.02    -0.02  -0.04   0.13
  17   1     0.21  -0.03   0.06     0.07   0.03   0.09    -0.12   0.00  -0.23
  18   1     0.11  -0.20  -0.01     0.06  -0.11  -0.02     0.01   0.39   0.02
  19   1     0.09   0.04  -0.07     0.05  -0.01  -0.06     0.17  -0.04  -0.14
  20   1     0.03   0.07  -0.05    -0.02  -0.00  -0.05    -0.06  -0.01  -0.10
  21   1    -0.02   0.03   0.07     0.06  -0.01  -0.02    -0.07   0.05  -0.06
  22   1     0.02   0.05   0.02     0.04   0.03  -0.00    -0.05  -0.11  -0.01
  23   1    -0.06  -0.06   0.02     0.13  -0.09   0.03    -0.08   0.10  -0.05
  24   1    -0.04  -0.09   0.00     0.11   0.12   0.08    -0.08  -0.18  -0.10
                     10                     11                     12
                        a                      a                      a 
 Frequencies --   555.4468               593.8168               790.0549
 Red. masses --     8.6755                 7.8408                 5.8362
 Frc consts  --     0.0000                 0.0000                 0.0000
 IR Inten    --     0.8838                 0.6315                 0.3776
 Raman Activ --     0.0000                 0.0000                 0.0000
 Depolar     --     0.0000                 0.0000                 0.0000
 Atom AN      X      Y      Z        X      Y      Z        X      Y      Z
   1   6     0.02  -0.04   0.08    -0.00   0.02  -0.01     0.05   0.01   0.12
   2   6    -0.11   0.11   0.02     0.11  -0.08   0.01     0.24  -0.03   0.01
   3   6     0.37   0.27  -0.37    -0.05  -0.07   0.10     0.14   0.12  -0.21
   4   6     0.30   0.07  -0.07    -0.19   0.23  -0.23    -0.22   0.02  -0.14
   5   6    -0.04  -0.14  -0.07     0.15   0.08  -0.07    -0.00   0.18   0.23
   6   6    -0.10  -0.14   0.05     0.29  -0.20  -0.10     0.05  -0.01   0.08
   7   6    -0.21  -0.12   0.21    -0.14  -0.28   0.24    -0.09  -0.01  -0.05
   8   6    -0.14   0.11   0.16    -0.17   0.26   0.15    -0.18  -0.25  -0.15
   9   1     0.04  -0.07   0.05    -0.02   0.03  -0.02    -0.03  -0.05  -0.10
  10   1    -0.01  -0.03   0.10     0.00   0.01  -0.05    -0.06  -0.01   0.10
  11   1     0.04  -0.03  -0.06    -0.02   0.02   0.05    -0.04   0.00   0.12
  12   1    -0.25   0.05   0.03     0.14  -0.03  -0.01    -0.13  -0.01   0.09
  13   1     0.04  -0.20   0.03     0.00   0.09   0.00     0.11  -0.22  -0.03
  14   1     0.10  -0.05  -0.08     0.03   0.06   0.02     0.07   0.08  -0.06
  15   1     0.11   0.09  -0.22     0.01  -0.03   0.12     0.01   0.03  -0.00
  16   1     0.08  -0.01  -0.03    -0.02   0.07  -0.08    -0.10   0.04  -0.00
  17   1    -0.05  -0.04   0.01    -0.06   0.04   0.07    -0.13   0.02   0.02
  18   1    -0.03  -0.03  -0.01     0.12  -0.00  -0.08     0.07   0.17   0.01
  19   1    -0.03  -0.07   0.01     0.21  -0.16  -0.19     0.13   0.02  -0.09
  20   1    -0.00   0.04  -0.00    -0.09   0.07  -0.15    -0.15  -0.07  -0.02
  21   1    -0.05  -0.03  -0.01    -0.10   0.03  -0.10    -0.05  -0.02   0.24
  22   1    -0.10  -0.08   0.07    -0.15  -0.24   0.08     0.16   0.11  -0.07
  23   1    -0.11   0.11   0.04    -0.05   0.01   0.07     0.18  -0.32  -0.03
  24   1    -0.10  -0.07  -0.01     0.04   0.16  -0.01     0.02   0.14   0.22
                     13                     14                     15
                        a                      a                      a 
 Frequencies --   807.4005               841.1116               874.2202
 Red. masses --     3.7286                 5.6908                 6.3793
 Frc consts  --     0.0000                 0.0000                 0.0000
 IR Inten    --    12.1158                 2.6431                 0.7061
 Raman Activ --     0.0000                 0.0000                 0.0000
 Depolar     --     0.0000                 0.0000                 0.0000
 Atom AN      X      Y      Z        X      Y      Z        X      Y      Z
   1   6     0.07   0.03  -0.11     0.04   0.01   0.14    -0.02   0.05  -0.09
   2   6     0.19   0.15   0.00     0.13  -0.08  -0.00    -0.08   0.12  -0.01
   3   6    -0.12   0.05   0.32     0.01   0.02  -0.25    -0.02  -0.16   0.07
   4   6    -0.12   0.03   0.03    -0.15  -0.08  -0.12     0.13  -0.19  -0.05
   5   6    -0.01  -0.03  -0.13    -0.19   0.13   0.12     0.02  -0.35   0.09
   6   6     0.06   0.03  -0.06    -0.10   0.16   0.14    -0.08   0.01   0.28
   7   6     0.07  -0.02   0.01     0.24   0.12   0.06     0.04   0.23   0.01
   8   6     0.04   0.02   0.03     0.19  -0.20  -0.02     0.05   0.28  -0.15
   9   1    -0.08  -0.14  -0.36    -0.01  -0.01  -0.02     0.01  -0.07  -0.07
  10   1    -0.13  -0.03   0.19    -0.02   0.00   0.05    -0.01  -0.02   0.13
  11   1    -0.10  -0.05   0.11    -0.02   0.01   0.09     0.00  -0.06  -0.11
  12   1    -0.34   0.05   0.17     0.02  -0.03   0.06    -0.06   0.02   0.09
  13   1     0.06  -0.33  -0.24     0.05  -0.07   0.00    -0.03  -0.03  -0.07
  14   1    -0.12  -0.24   0.13     0.05   0.15  -0.09     0.04   0.02   0.01
  15   1    -0.03   0.04  -0.20    -0.02  -0.01   0.08    -0.08  -0.04   0.07
  16   1     0.03  -0.02  -0.04    -0.11  -0.08  -0.01     0.08   0.05  -0.01
  17   1     0.09   0.03   0.05     0.04   0.06   0.09    -0.17  -0.20  -0.23
  18   1     0.01  -0.15  -0.04    -0.04  -0.08   0.03     0.07   0.24  -0.03
  19   1    -0.03  -0.02   0.02     0.05  -0.10  -0.08     0.21  -0.09  -0.18
  20   1     0.07   0.03  -0.00    -0.20   0.05  -0.04    -0.30   0.11  -0.08
  21   1     0.00   0.03  -0.07    -0.02   0.21  -0.32     0.02   0.08  -0.10
  22   1    -0.05  -0.06   0.02    -0.22  -0.25   0.08     0.01  -0.07  -0.03
  23   1    -0.02   0.03   0.02    -0.21   0.07   0.07     0.08  -0.02  -0.02
  24   1     0.01  -0.01  -0.05     0.04  -0.18  -0.25     0.01   0.12   0.06
                     16                     17                     18
                        a                      a                      a 
 Frequencies --   887.8083               922.2728               962.2505
 Red. masses --     4.9266                 6.5403                 5.2001
 Frc consts  --     0.0000                 0.0000                 0.0000
 IR Inten    --     2.1002                 2.9613                 0.2090
 Raman Activ --     0.0000                 0.0000                 0.0000
 Depolar     --     0.0000                 0.0000                 0.0000
 Atom AN      X      Y      Z        X      Y      Z        X      Y      Z
   1   6     0.03   0.13   0.15    -0.10   0.12  -0.29     0.00   0.02   0.13
   2   6     0.07   0.03  -0.07    -0.20   0.20   0.05     0.03  -0.04  -0.08
   3   6    -0.12  -0.24  -0.27     0.22  -0.27   0.13    -0.06   0.00  -0.11
   4   6     0.01  -0.05   0.08     0.11   0.04  -0.10     0.06  -0.01   0.25
   5   6     0.12   0.04  -0.01    -0.10   0.30   0.05    -0.02  -0.02  -0.17
   6   6    -0.02  -0.09  -0.15    -0.01   0.03   0.02    -0.06   0.20   0.02
   7   6    -0.02  -0.07  -0.08     0.01  -0.07   0.06    -0.02  -0.22   0.23
   8   6    -0.01   0.25   0.17    -0.04  -0.20  -0.06     0.00   0.02  -0.31
   9   1    -0.01  -0.12  -0.12     0.06  -0.11  -0.02    -0.00   0.01   0.03
  10   1    -0.04  -0.02   0.33     0.05  -0.04   0.23    -0.01   0.00   0.05
  11   1    -0.03  -0.09  -0.02     0.05  -0.15  -0.38    -0.00   0.00   0.04
  12   1    -0.00  -0.04   0.25     0.01   0.02   0.17     0.01  -0.02   0.01
  13   1     0.01  -0.10  -0.13    -0.05   0.04   0.00     0.01  -0.03  -0.02
  14   1     0.02   0.32  -0.15     0.15   0.02   0.03    -0.10   0.09  -0.07
  15   1    -0.11  -0.09   0.31     0.08  -0.09   0.15    -0.02  -0.01   0.05
  16   1    -0.08  -0.01   0.07     0.14   0.02  -0.08    -0.00   0.11   0.11
  17   1     0.03  -0.00  -0.05     0.07   0.15   0.20     0.26   0.01  -0.12
  18   1    -0.03   0.05   0.04    -0.05  -0.14   0.04    -0.20  -0.09   0.11
  19   1    -0.11   0.10   0.10    -0.03  -0.07   0.01    -0.11  -0.22   0.03
  20   1     0.16  -0.11   0.06    -0.03  -0.02   0.01     0.09   0.37  -0.05
  21   1     0.09  -0.15   0.00    -0.06   0.06   0.04    -0.09   0.05   0.06
  22   1     0.01   0.12   0.01     0.00  -0.08  -0.00     0.08  -0.25  -0.03
  23   1    -0.04   0.15   0.02     0.04  -0.13  -0.00     0.23  -0.09  -0.15
  24   1    -0.02   0.01  -0.04     0.01   0.00   0.05     0.09   0.19   0.05
                     19                     20                     21
                        a                      a                      a 
 Frequencies --   980.5529              1003.7958              1034.1360
 Red. masses --     7.6143                 6.4011                 4.2866
 Frc consts  --     0.0000                 0.0000                 0.0000
 IR Inten    --     0.5627                 1.1551                 0.1493
 Raman Activ --     0.0000                 0.0000                 0.0000
 Depolar     --     0.0000                 0.0000                 0.0000
 Atom AN      X      Y      Z        X      Y      Z        X      Y      Z
   1   6    -0.02   0.00   0.07    -0.02  -0.08   0.00     0.03   0.07   0.17
   2   6     0.03  -0.00  -0.05     0.04   0.08   0.00    -0.03  -0.08  -0.16
   3   6     0.00  -0.01  -0.06     0.03  -0.02   0.00    -0.12  -0.01  -0.03
   4   6     0.05  -0.05   0.13     0.01  -0.30   0.03     0.17   0.07   0.07
   5   6    -0.26  -0.13  -0.01     0.13   0.32  -0.06    -0.10   0.07  -0.19
   6   6     0.36  -0.23  -0.17    -0.18  -0.05   0.13     0.07  -0.05   0.24
   7   6     0.20   0.39  -0.10     0.18  -0.07  -0.16    -0.16   0.05  -0.12
   8   6    -0.25   0.07   0.06    -0.25   0.26   0.12     0.12  -0.02   0.05
   9   1     0.01   0.02   0.06     0.00   0.06   0.08    -0.02  -0.01  -0.03
  10   1     0.01   0.00   0.01     0.01   0.01  -0.15    -0.02   0.01   0.10
  11   1     0.01   0.00   0.00     0.01   0.05   0.04    -0.04  -0.01   0.10
  12   1    -0.02   0.00  -0.03    -0.13   0.06  -0.13     0.07  -0.03  -0.00
  13   1     0.02  -0.02   0.02     0.06  -0.07   0.07    -0.06   0.08  -0.12
  14   1    -0.04   0.04  -0.04     0.07  -0.01   0.01    -0.13   0.04  -0.04
  15   1    -0.04   0.00   0.02    -0.20   0.04  -0.05     0.07  -0.03   0.03
  16   1     0.03   0.01   0.03     0.06  -0.13  -0.04     0.08  -0.21  -0.08
  17   1    -0.11  -0.01   0.12     0.33   0.12  -0.03    -0.05   0.10   0.24
  18   1    -0.18  -0.12   0.09     0.04  -0.10  -0.01     0.16  -0.24  -0.19
  19   1    -0.03  -0.20   0.05    -0.03  -0.15  -0.02     0.16  -0.11  -0.11
  20   1     0.19  -0.09   0.00    -0.22  -0.19   0.02    -0.19   0.06  -0.05
  21   1    -0.13   0.35  -0.05     0.11  -0.08  -0.12    -0.07   0.00   0.19
  22   1     0.01  -0.08  -0.06     0.10  -0.13  -0.10     0.19   0.03  -0.14
  23   1     0.02  -0.10   0.04     0.03  -0.02   0.03     0.14   0.22  -0.16
  24   1    -0.09   0.07   0.20    -0.08   0.11   0.15    -0.17  -0.23   0.10
                     22                     23                     24
                        a                      a                      a 
 Frequencies --  1051.5181              1074.1716              1096.8268
 Red. masses --     5.6434                 5.2208                 6.5769
 Frc consts  --     0.0000                 0.0000                 0.0000
 IR Inten    --     5.1240                 0.3637                 1.4527
 Raman Activ --     0.0000                 0.0000                 0.0000
 Depolar     --     0.0000                 0.0000                 0.0000
 Atom AN      X      Y      Z        X      Y      Z        X      Y      Z
   1   6     0.25  -0.10   0.09     0.05   0.13   0.08    -0.17   0.10   0.36
   2   6    -0.25   0.08  -0.01    -0.11  -0.16  -0.09     0.09   0.01  -0.48
   3   6    -0.11  -0.12  -0.01     0.02   0.17   0.05    -0.03  -0.11   0.16
   4   6     0.33  -0.03  -0.22     0.02   0.21   0.02     0.15  -0.01  -0.04
   5   6     0.05   0.15   0.14     0.25  -0.03  -0.12     0.01   0.06   0.03
   6   6    -0.05  -0.08  -0.04    -0.21  -0.15   0.05    -0.04   0.00  -0.04
   7   6    -0.07   0.04   0.13     0.12   0.13  -0.03     0.00  -0.01   0.11
   8   6     0.05  -0.04  -0.09    -0.17  -0.16   0.05    -0.00  -0.07  -0.11
   9   1    -0.11   0.04  -0.28    -0.01  -0.06  -0.11     0.04   0.04   0.28
  10   1    -0.13   0.02  -0.14    -0.03  -0.00   0.20     0.06   0.01   0.13
  11   1    -0.10   0.09   0.40    -0.04  -0.05   0.02     0.03   0.01  -0.05
  12   1    -0.03   0.04  -0.11     0.19  -0.08   0.07    -0.12   0.03  -0.22
  13   1    -0.18   0.13  -0.22    -0.12   0.15  -0.13     0.05  -0.10  -0.11
  14   1     0.18   0.00   0.03    -0.15  -0.05   0.01    -0.19  -0.01  -0.00
  15   1    -0.14  -0.01   0.04     0.35  -0.02  -0.02    -0.06  -0.01  -0.02
  16   1     0.13   0.09  -0.05    -0.05   0.09   0.04     0.26   0.10  -0.10
  17   1    -0.02   0.04   0.06     0.26  -0.05  -0.24    -0.08   0.03   0.08
  18   1    -0.13   0.07   0.15     0.04   0.06  -0.01     0.09   0.00  -0.06
  19   1    -0.08  -0.05   0.06    -0.09  -0.13   0.02     0.01   0.15   0.01
  20   1     0.04  -0.05   0.03    -0.14  -0.25   0.05    -0.01  -0.11   0.03
  21   1    -0.05   0.05   0.03    -0.01   0.10  -0.08     0.04  -0.03  -0.07
  22   1    -0.06  -0.00   0.05    -0.06  -0.04   0.01    -0.14   0.06   0.12
  23   1     0.00  -0.07   0.01    -0.06  -0.14   0.07    -0.08  -0.15   0.08
  24   1    -0.01  -0.02   0.03    -0.03   0.00   0.08     0.11   0.11  -0.05
                     25                     26                     27
                        a                      a                      a 
 Frequencies --  1106.2961              1149.9551              1168.6072
 Red. masses --     6.4916                 5.5481                 7.2661
 Frc consts  --     0.0000                 0.0000                 0.0000
 IR Inten    --     0.4583                 0.9501                 1.8039
 Raman Activ --     0.0000                 0.0000                 0.0000
 Depolar     --     0.0000                 0.0000                 0.0000
 Atom AN      X      Y      Z        X      Y      Z        X      Y      Z
   1   6    -0.08  -0.04  -0.08    -0.08  -0.06  -0.03    -0.01   0.12  -0.08
   2   6     0.15   0.02   0.09     0.17   0.08   0.04     0.05  -0.32   0.12
   3   6    -0.10  -0.02  -0.00    -0.17  -0.11   0.03    -0.18   0.32  -0.01
   4   6    -0.04  -0.03  -0.02     0.07   0.29  -0.10     0.18  -0.32  -0.06
   5   6     0.15   0.11  -0.05     0.29   0.03  -0.03     0.04   0.19   0.10
   6   6    -0.06  -0.30  -0.01    -0.20  -0.16   0.05    -0.00  -0.11  -0.04
   7   6    -0.27   0.23   0.22     0.04   0.15  -0.05    -0.07   0.09   0.14
   8   6     0.31   0.04  -0.20    -0.03  -0.21   0.04    -0.02   0.13  -0.22
   9   1     0.03   0.01   0.10     0.02   0.03   0.12     0.02  -0.08  -0.06
  10   1     0.05  -0.01  -0.06     0.04  -0.00  -0.08     0.01  -0.01   0.16
  11   1     0.04   0.00  -0.11     0.04   0.02  -0.06    -0.01  -0.08  -0.11
  12   1    -0.06   0.01   0.04    -0.11   0.04   0.01     0.22  -0.12   0.14
  13   1     0.10  -0.11   0.11     0.09  -0.09   0.05    -0.02   0.07   0.05
  14   1    -0.02   0.02  -0.00    -0.03   0.04  -0.00    -0.12  -0.07   0.02
  15   1    -0.14   0.02  -0.01    -0.11  -0.02   0.05    -0.08   0.10  -0.17
  16   1    -0.05   0.03   0.03    -0.06   0.14   0.04     0.02  -0.16  -0.03
  17   1     0.16   0.02  -0.08    -0.15   0.00   0.09    -0.14   0.08   0.19
  18   1     0.03  -0.00  -0.01     0.02   0.10   0.04     0.01   0.01   0.03
  19   1    -0.09  -0.15   0.05    -0.14  -0.25   0.04    -0.04  -0.03   0.03
  20   1    -0.07  -0.31   0.05     0.11   0.35  -0.05     0.10   0.11  -0.01
  21   1    -0.24   0.25   0.20     0.16  -0.12  -0.17     0.15  -0.16  -0.15
  22   1    -0.08   0.09   0.07     0.00  -0.03  -0.03    -0.09   0.03   0.07
  23   1     0.07   0.13  -0.11     0.02  -0.02  -0.02     0.01  -0.11   0.01
  24   1     0.06  -0.05  -0.11    -0.21  -0.24   0.20    -0.03   0.06   0.07
                     28                     29                     30
                        a                      a                      a 
 Frequencies --  1171.7078              1189.6392              1215.6977
 Red. masses --     5.9703                 7.4665                 4.5847
 Frc consts  --     0.0000                 0.0000                 0.0000
 IR Inten    --     2.0480                 0.6369                 0.9344
 Raman Activ --     0.0000                 0.0000                 0.0000
 Depolar     --     0.0000                 0.0000                 0.0000
 Atom AN      X      Y      Z        X      Y      Z        X      Y      Z
   1   6    -0.09   0.13   0.13     0.05   0.04   0.09     0.01  -0.03  -0.00
   2   6     0.06  -0.11  -0.21    -0.17   0.10  -0.16    -0.02   0.03   0.01
   3   6     0.05   0.05   0.19     0.37  -0.09   0.06    -0.00   0.01  -0.02
   4   6    -0.10  -0.13  -0.38    -0.36  -0.18   0.20     0.02  -0.01   0.04
   5   6    -0.02   0.03   0.24     0.09   0.09  -0.01    -0.08   0.07  -0.10
   6   6     0.08   0.05  -0.03    -0.02  -0.22  -0.03     0.21  -0.16   0.26
   7   6    -0.08  -0.06  -0.08    -0.09   0.20   0.08    -0.26   0.12  -0.25
   8   6     0.13   0.13   0.14     0.06   0.07  -0.18     0.10  -0.05   0.05
   9   1     0.03  -0.02   0.09    -0.02   0.00  -0.05    -0.01   0.01   0.00
  10   1     0.02   0.00   0.17    -0.03   0.01   0.03    -0.01  -0.00  -0.03
  11   1     0.02  -0.04  -0.10    -0.03   0.01   0.09     0.00   0.00   0.01
  12   1    -0.00  -0.01  -0.15    -0.06   0.06  -0.20     0.02  -0.00   0.05
  13   1    -0.01   0.03  -0.10    -0.05   0.05  -0.06     0.01  -0.03   0.01
  14   1     0.10  -0.14   0.09     0.16  -0.05   0.03    -0.07   0.02  -0.02
  15   1     0.06   0.01  -0.09     0.21  -0.05   0.05     0.01  -0.00   0.01
  16   1    -0.16  -0.07  -0.03    -0.21  -0.15   0.09     0.07   0.14   0.02
  17   1     0.12  -0.04  -0.16    -0.07   0.03   0.08     0.21   0.04  -0.06
  18   1    -0.25   0.14   0.26     0.15  -0.02  -0.10    -0.21  -0.07   0.13
  19   1    -0.06  -0.16   0.03    -0.06  -0.12   0.03     0.12  -0.23  -0.05
  20   1     0.07   0.10  -0.02     0.12   0.18  -0.03    -0.04   0.19  -0.05
  21   1    -0.08   0.03   0.13     0.12  -0.10  -0.13     0.10  -0.21   0.03
  22   1     0.17  -0.09  -0.14    -0.09   0.09   0.06    -0.02   0.27  -0.02
  23   1    -0.02   0.16  -0.00     0.06   0.03  -0.08    -0.30  -0.18   0.27
  24   1    -0.12  -0.17   0.04     0.01   0.03  -0.03     0.19   0.11  -0.20
                     31                     32                     33
                        a                      a                      a 
 Frequencies --  1225.4691              1246.4856              1277.4598
 Red. masses --     3.5381                 3.4869                 2.5986
 Frc consts  --     0.0000                 0.0000                 0.0000
 IR Inten    --     0.8723                 0.6348                 1.3228
 Raman Activ --     0.0000                 0.0000                 0.0000
 Depolar     --     0.0000                 0.0000                 0.0000
 Atom AN      X      Y      Z        X      Y      Z        X      Y      Z
   1   6    -0.01  -0.05  -0.00     0.10   0.26  -0.02    -0.17  -0.07   0.06
   2   6     0.04   0.08   0.01    -0.06  -0.27   0.04     0.10  -0.05  -0.06
   3   6    -0.03  -0.05  -0.00     0.04  -0.03  -0.02     0.04   0.09   0.00
   4   6    -0.02   0.06  -0.08    -0.06   0.13   0.08    -0.00   0.01   0.06
   5   6    -0.25  -0.01  -0.01    -0.03  -0.04  -0.12     0.04  -0.03  -0.17
   6   6     0.25   0.01   0.05     0.03   0.00   0.07     0.04   0.03   0.08
   7   6    -0.03   0.02   0.20     0.03   0.00  -0.02     0.02   0.04   0.00
   8   6     0.00   0.03  -0.19    -0.01  -0.10   0.05    -0.12  -0.11   0.08
   9   1    -0.00   0.03   0.03     0.02  -0.12  -0.19     0.01   0.04   0.18
  10   1     0.00  -0.00  -0.05    -0.04   0.01   0.27     0.06  -0.01  -0.07
  11   1     0.01   0.02  -0.00    -0.04  -0.10  -0.05     0.03   0.02  -0.07
  12   1    -0.05   0.02   0.03    -0.03   0.01  -0.44     0.12  -0.07   0.24
  13   1     0.02   0.00   0.01     0.05   0.04   0.26    -0.16   0.05  -0.49
  14   1    -0.06   0.02  -0.02     0.24  -0.03   0.04     0.41  -0.10   0.10
  15   1     0.13  -0.04   0.06    -0.42   0.09  -0.09    -0.21   0.08  -0.10
  16   1    -0.04   0.05   0.01     0.05   0.26   0.06    -0.11   0.12   0.11
  17   1     0.27  -0.01  -0.18     0.04  -0.00  -0.03    -0.08   0.02   0.08
  18   1    -0.17  -0.06   0.08    -0.02  -0.05  -0.02    -0.13  -0.04   0.06
  19   1     0.17   0.16  -0.05     0.05   0.02  -0.02     0.04  -0.01  -0.02
  20   1    -0.05  -0.17   0.02    -0.05  -0.03   0.00    -0.09  -0.07   0.01
  21   1     0.22  -0.24  -0.20     0.03  -0.02  -0.03     0.06  -0.04  -0.06
  22   1    -0.20   0.13   0.19    -0.07   0.08   0.06    -0.08   0.09   0.06
  23   1     0.14   0.03  -0.13     0.06   0.07  -0.07     0.16   0.13  -0.16
  24   1    -0.29  -0.22   0.30    -0.02  -0.04   0.02     0.09   0.09  -0.09
                     34                     35                     36
                        a                      a                      a 
 Frequencies --  1289.8179              1300.1876              1312.7438
 Red. masses --     3.6033                 3.6530                 4.0499
 Frc consts  --     0.0000                 0.0000                 0.0000
 IR Inten    --     0.9264                 0.6199                 3.1374
 Raman Activ --     0.0000                 0.0000                 0.0000
 Depolar     --     0.0000                 0.0000                 0.0000
 Atom AN      X      Y      Z        X      Y      Z        X      Y      Z
   1   6     0.06   0.02  -0.00    -0.05   0.03   0.00     0.03   0.00   0.01
   2   6    -0.03   0.05  -0.00     0.09  -0.03   0.05    -0.02   0.02  -0.02
   3   6     0.00  -0.03   0.06    -0.05  -0.05   0.02    -0.04   0.01   0.02
   4   6     0.04  -0.09  -0.07     0.16   0.14   0.11     0.00  -0.04  -0.11
   5   6     0.25  -0.04  -0.30     0.02   0.00  -0.16     0.09   0.06  -0.03
   6   6     0.05   0.20   0.07    -0.08  -0.09   0.06    -0.13  -0.27   0.17
   7   6    -0.06   0.03   0.07     0.08  -0.14  -0.03     0.25  -0.12  -0.15
   8   6    -0.03  -0.01   0.01     0.11   0.18  -0.22    -0.16  -0.03   0.07
   9   1    -0.01   0.01  -0.05     0.01  -0.01   0.04    -0.01   0.01  -0.02
  10   1    -0.04   0.00   0.02     0.02   0.00   0.03    -0.02   0.00   0.00
  11   1    -0.00  -0.01   0.00     0.01  -0.01  -0.05     0.00  -0.00  -0.00
  12   1    -0.06   0.04  -0.12    -0.08   0.03  -0.12    -0.01   0.01  -0.01
  13   1     0.08  -0.05   0.18    -0.04   0.03  -0.13     0.05  -0.03   0.11
  14   1    -0.20  -0.00  -0.02     0.19  -0.05   0.05    -0.10   0.01  -0.01
  15   1     0.17  -0.05   0.07    -0.04  -0.01   0.03     0.10  -0.02   0.01
  16   1    -0.23  -0.00   0.12    -0.39  -0.22   0.18     0.03  -0.16  -0.10
  17   1    -0.33   0.04   0.27    -0.02   0.03   0.06     0.05   0.03   0.01
  18   1    -0.37  -0.00   0.27    -0.07  -0.05   0.01    -0.20   0.05   0.17
  19   1     0.01  -0.03  -0.00     0.10   0.26  -0.04     0.12   0.24  -0.04
  20   1    -0.20  -0.28   0.04    -0.04   0.06  -0.02     0.03   0.30  -0.05
  21   1     0.07  -0.09  -0.04    -0.13   0.13   0.12    -0.16   0.24   0.07
  22   1     0.05  -0.07  -0.03    -0.03  -0.00   0.03    -0.26   0.31   0.21
  23   1     0.05   0.03  -0.05    -0.28  -0.30   0.28     0.18   0.18  -0.19
  24   1     0.07   0.06  -0.08    -0.13  -0.07   0.16     0.06   0.10  -0.05
                     37                     38                     39
                        a                      a                      a 
 Frequencies --  1320.9870              1325.7424              1346.7478
 Red. masses --     3.9012                 4.2926                 4.8281
 Frc consts  --     0.0000                 0.0000                 0.0000
 IR Inten    --     4.0315                 7.8340                 5.3060
 Raman Activ --     0.0000                 0.0000                 0.0000
 Depolar     --     0.0000                 0.0000                 0.0000
 Atom AN      X      Y      Z        X      Y      Z        X      Y      Z
   1   6    -0.01   0.02  -0.00    -0.02   0.05   0.00    -0.04   0.04  -0.02
   2   6     0.03  -0.01   0.04     0.08  -0.02   0.08     0.10   0.01   0.16
   3   6    -0.06  -0.03  -0.01    -0.18  -0.06  -0.04    -0.16  -0.01   0.02
   4   6     0.09   0.10   0.01     0.14   0.31   0.04     0.34  -0.18  -0.19
   5   6    -0.00  -0.10   0.11    -0.03  -0.05   0.09    -0.23   0.07   0.07
   6   6     0.13   0.34   0.01     0.03  -0.07  -0.02     0.01  -0.04  -0.02
   7   6     0.07  -0.21  -0.15    -0.12   0.20   0.11     0.00   0.02  -0.02
   8   6    -0.06   0.06  -0.08    -0.14  -0.15   0.02    -0.12  -0.06   0.13
   9   1     0.01  -0.02  -0.01     0.01  -0.03  -0.01     0.01  -0.03  -0.01
  10   1     0.02   0.00  -0.00     0.02   0.01   0.02     0.03   0.00   0.01
  11   1     0.00  -0.00  -0.01     0.01  -0.02  -0.05     0.01  -0.01  -0.05
  12   1    -0.04   0.02  -0.08    -0.08   0.04  -0.19    -0.13   0.07  -0.24
  13   1    -0.00   0.00  -0.01     0.02  -0.04  -0.01    -0.02  -0.01  -0.08
  14   1     0.03   0.01   0.01     0.17   0.00   0.03    -0.05  -0.01   0.00
  15   1     0.01  -0.01   0.02     0.03  -0.03   0.03     0.24  -0.06   0.07
  16   1    -0.07  -0.26  -0.04    -0.01  -0.57  -0.18    -0.36   0.28   0.31
  17   1    -0.08  -0.05  -0.02     0.11  -0.04  -0.13     0.09   0.04   0.00
  18   1     0.11   0.02  -0.06    -0.06   0.02   0.07     0.23  -0.04  -0.21
  19   1    -0.21  -0.54   0.08     0.05   0.06  -0.02    -0.00  -0.00   0.00
  20   1    -0.08  -0.11   0.02     0.04  -0.03   0.01     0.03   0.06  -0.01
  21   1    -0.05   0.00   0.07     0.13  -0.12  -0.12     0.01   0.00  -0.03
  22   1    -0.29   0.34   0.23     0.12  -0.13  -0.10     0.01   0.02  -0.01
  23   1     0.01  -0.03  -0.01     0.09  -0.01  -0.08     0.10   0.08  -0.09
  24   1    -0.02   0.04   0.03     0.20   0.16  -0.21     0.13   0.12  -0.13
                     40                     41                     42
                        a                      a                      a 
 Frequencies --  1361.5034              1370.4863              1410.2448
 Red. masses --     4.3655                 4.3118                 3.3324
 Frc consts  --     0.0000                 0.0000                 0.0000
 IR Inten    --     7.9950                 8.0532                 2.2869
 Raman Activ --     0.0000                 0.0000                 0.0000
 Depolar     --     0.0000                 0.0000                 0.0000
 Atom AN      X      Y      Z        X      Y      Z        X      Y      Z
   1   6     0.09  -0.06  -0.05    -0.03   0.02  -0.04     0.01   0.06   0.43
   2   6    -0.14   0.08  -0.43     0.12  -0.00   0.03    -0.04   0.03  -0.13
   3   6    -0.13   0.01   0.12    -0.41   0.11  -0.17    -0.07   0.01   0.03
   4   6     0.17   0.06  -0.03    -0.12  -0.15   0.14     0.02  -0.01   0.01
   5   6    -0.08  -0.00   0.02     0.07   0.01  -0.05    -0.02  -0.00  -0.01
   6   6     0.01   0.00  -0.00    -0.01   0.02   0.00    -0.00   0.00  -0.00
   7   6    -0.01   0.01   0.01     0.01  -0.03  -0.02     0.00  -0.00  -0.01
   8   6    -0.05  -0.02   0.01     0.06   0.04  -0.02    -0.00   0.02   0.00
   9   1     0.02   0.08   0.09     0.02  -0.00   0.05    -0.16  -0.14  -0.44
  10   1    -0.06  -0.03   0.12     0.02  -0.01   0.06    -0.00   0.11  -0.48
  11   1    -0.06   0.07   0.22    -0.01   0.01   0.01     0.17  -0.18  -0.43
  12   1     0.14  -0.08   0.34    -0.06   0.03  -0.12     0.09  -0.03   0.09
  13   1     0.21  -0.12   0.46     0.06  -0.05   0.04     0.08  -0.09   0.12
  14   1     0.29  -0.13   0.12     0.47  -0.10   0.10     0.12  -0.01   0.03
  15   1    -0.02   0.00  -0.01     0.48  -0.10   0.11     0.03  -0.00  -0.03
  16   1    -0.22  -0.03   0.12     0.34   0.16  -0.10    -0.02   0.02   0.02
  17   1     0.05   0.00  -0.02    -0.08   0.00   0.05     0.01   0.01   0.01
  18   1     0.08  -0.02  -0.07    -0.04  -0.01   0.03     0.03   0.00  -0.03
  19   1     0.00  -0.01  -0.00    -0.01  -0.01   0.00     0.00  -0.00  -0.01
  20   1     0.00  -0.00  -0.00    -0.01  -0.01   0.00     0.01  -0.00   0.00
  21   1     0.01  -0.01  -0.02    -0.02   0.02   0.03    -0.00  -0.00   0.01
  22   1     0.00   0.00  -0.00    -0.01   0.00   0.01    -0.00  -0.01  -0.00
  23   1     0.01  -0.02  -0.01    -0.06   0.01   0.04     0.01  -0.04   0.01
  24   1     0.03   0.04  -0.03    -0.03  -0.02   0.07    -0.02  -0.02  -0.01
                     43                     44                     45
                        a                      a                      a 
 Frequencies --  1481.9297              1483.5086              1486.2697
 Red. masses --     1.8929                 1.8568                 1.9241
 Frc consts  --     0.0000                 0.0000                 0.0000
 IR Inten    --     1.4227                 0.5092                 1.0998
 Raman Activ --     0.0000                 0.0000                 0.0000
 Depolar     --     0.0000                 0.0000                 0.0000
 Atom AN      X      Y      Z        X      Y      Z        X      Y      Z
   1   6    -0.03   0.05   0.01    -0.01  -0.02   0.02    -0.03  -0.04   0.01
   2   6    -0.00   0.02  -0.02    -0.03   0.04   0.02     0.02  -0.03  -0.02
   3   6     0.04   0.08  -0.09     0.06   0.12  -0.14     0.03   0.08  -0.10
   4   6     0.01   0.02  -0.01     0.02   0.01  -0.02    -0.02   0.00   0.01
   5   6     0.07   0.14   0.08    -0.01   0.00   0.01    -0.05  -0.10  -0.06
   6   6     0.13  -0.06  -0.02    -0.09   0.03   0.01    -0.06   0.03   0.01
   7   6    -0.01  -0.04   0.04     0.04   0.09  -0.08    -0.04  -0.10   0.08
   8   6    -0.02   0.04   0.03     0.02  -0.09  -0.04    -0.04   0.13   0.07
   9   1     0.08  -0.17   0.02    -0.04   0.03  -0.04    -0.06   0.05  -0.07
  10   1     0.09   0.02  -0.10     0.01  -0.00   0.02     0.08  -0.02   0.07
  11   1    -0.08  -0.06   0.07     0.05   0.05  -0.03     0.10   0.13  -0.03
  12   1     0.01   0.00   0.01     0.13  -0.00  -0.06    -0.07   0.00   0.02
  13   1     0.00  -0.01  -0.00     0.03  -0.14  -0.05    -0.01   0.08   0.02
  14   1    -0.08  -0.31   0.06    -0.12  -0.46   0.09    -0.06  -0.29   0.05
  15   1    -0.09  -0.02   0.32    -0.14  -0.02   0.47    -0.08  -0.01   0.29
  16   1     0.01   0.02  -0.00    -0.02  -0.02  -0.01     0.03   0.01  -0.02
  17   1    -0.23  -0.14  -0.32     0.02   0.01   0.00     0.17   0.10   0.23
  18   1    -0.02  -0.40   0.03     0.01   0.02  -0.01     0.01   0.29  -0.02
  19   1    -0.20   0.13   0.24     0.14  -0.07  -0.16     0.08  -0.07  -0.10
  20   1    -0.28   0.11  -0.15     0.20  -0.05   0.10     0.12  -0.05   0.07
  21   1    -0.02   0.06  -0.13     0.06  -0.13   0.26    -0.07   0.14  -0.27
  22   1     0.10   0.09  -0.02    -0.20  -0.20   0.04     0.20   0.24  -0.04
  23   1     0.09  -0.10   0.00    -0.15   0.20  -0.03     0.22  -0.28   0.02
  24   1    -0.02  -0.08  -0.10     0.05   0.15   0.19    -0.07  -0.22  -0.27
                     46                     47                     48
                        a                      a                      a 
 Frequencies --  1491.4311              1501.8153              1507.1382
 Red. masses --     1.9639                 1.7874                 1.8812
 Frc consts  --     0.0000                 0.0000                 0.0000
 IR Inten    --     0.2676                 0.5214                 1.4956
 Raman Activ --     0.0000                 0.0000                 0.0000
 Depolar     --     0.0000                 0.0000                 0.0000
 Atom AN      X      Y      Z        X      Y      Z        X      Y      Z
   1   6     0.02  -0.05   0.01    -0.12  -0.09   0.02    -0.11  -0.04  -0.02
   2   6    -0.04   0.03   0.04     0.03  -0.07  -0.05    -0.17   0.13   0.09
   3   6     0.01   0.02  -0.02     0.01  -0.00   0.00    -0.02  -0.03   0.05
   4   6    -0.01   0.01   0.00    -0.01  -0.00   0.01     0.00  -0.00  -0.01
   5   6    -0.06  -0.12  -0.04    -0.02  -0.03  -0.01     0.02   0.04   0.01
   6   6     0.18  -0.06  -0.05     0.10  -0.05  -0.02    -0.04   0.02   0.01
   7   6    -0.02  -0.04   0.05     0.04   0.12  -0.09    -0.00  -0.04   0.02
   8   6     0.04  -0.10  -0.06    -0.02   0.04   0.03    -0.01   0.04   0.01
   9   1    -0.09   0.19  -0.03    -0.11  -0.01  -0.23    -0.03  -0.08  -0.12
  10   1    -0.12  -0.01   0.08     0.39  -0.06   0.15     0.34  -0.05   0.11
  11   1     0.09   0.05  -0.10     0.24   0.41   0.01     0.12   0.29   0.08
  12   1     0.16  -0.01  -0.08    -0.20   0.00   0.08     0.50  -0.02  -0.22
  13   1     0.03  -0.17  -0.06    -0.03   0.21   0.09     0.08  -0.50  -0.13
  14   1    -0.01  -0.07   0.01     0.01   0.02  -0.00     0.01   0.13  -0.02
  15   1    -0.03   0.00   0.07     0.00   0.00  -0.02     0.02   0.01  -0.13
  16   1     0.01  -0.03  -0.02     0.01   0.00  -0.00    -0.01   0.01   0.01
  17   1     0.19   0.09   0.21     0.04   0.02   0.04    -0.06  -0.03  -0.07
  18   1     0.04   0.28  -0.04    -0.00   0.05  -0.00    -0.02  -0.10   0.02
  19   1    -0.27   0.13   0.30    -0.14   0.10   0.16     0.06  -0.02  -0.06
  20   1    -0.36   0.11  -0.19    -0.19   0.07  -0.11     0.07  -0.02   0.04
  21   1    -0.02   0.06  -0.16     0.07  -0.14   0.29    -0.02   0.04  -0.07
  22   1     0.13   0.09  -0.04    -0.22  -0.24   0.05     0.05   0.07  -0.01
  23   1    -0.19   0.21  -0.01     0.09  -0.08  -0.01     0.05  -0.07   0.01
  24   1     0.04   0.16   0.23    -0.01  -0.05  -0.11    -0.05  -0.08  -0.03
                     49                     50                     51
                        a                      a                      a 
 Frequencies --  1511.7760              1518.0355              2904.8531
 Red. masses --     1.7775                 1.7160                 1.7555
 Frc consts  --     0.0000                 0.0000                 0.0000
 IR Inten    --     1.0268                 0.4601                73.1654
 Raman Activ --     0.0000                 0.0000                 0.0000
 Depolar     --     0.0000                 0.0000                 0.0000
 Atom AN      X      Y      Z        X      Y      Z        X      Y      Z
   1   6     0.11  -0.03  -0.02     0.05  -0.17   0.03    -0.00   0.00  -0.00
   2   6    -0.03   0.04   0.06     0.05  -0.06   0.00     0.00   0.00  -0.00
   3   6    -0.02   0.01  -0.01    -0.01   0.00   0.00     0.01  -0.01  -0.02
   4   6    -0.00  -0.00   0.01     0.02   0.00  -0.00     0.12  -0.07   0.22
   5   6    -0.01  -0.01   0.00     0.06   0.11   0.06    -0.00   0.02  -0.00
   6   6     0.05  -0.03  -0.02    -0.05   0.02   0.01    -0.00   0.00  -0.00
   7   6     0.05   0.09  -0.08    -0.02  -0.05   0.03     0.00  -0.00  -0.00
   8   6    -0.05   0.14   0.07     0.01  -0.03  -0.01    -0.01  -0.01  -0.02
   9   1    -0.06   0.30   0.13    -0.28   0.51  -0.13    -0.00  -0.00   0.00
  10   1    -0.41   0.01   0.05    -0.23  -0.04   0.24    -0.00   0.00   0.00
  11   1    -0.03  -0.17  -0.12     0.28   0.21  -0.25     0.00  -0.00   0.00
  12   1     0.21  -0.00  -0.12    -0.10  -0.00   0.01    -0.00  -0.00  -0.00
  13   1     0.03  -0.21  -0.09    -0.02   0.10   0.02    -0.01  -0.00   0.00
  14   1     0.00  -0.01   0.00     0.01   0.01  -0.00    -0.02   0.03   0.11
  15   1     0.00  -0.00   0.01    -0.00   0.00  -0.02     0.00  -0.01  -0.01
  16   1     0.02   0.02  -0.00    -0.01   0.01   0.01    -0.44   0.26  -0.80
  17   1     0.02   0.01   0.02    -0.18  -0.10  -0.23     0.01  -0.06   0.02
  18   1     0.02   0.03  -0.02     0.00  -0.32   0.00     0.02   0.01   0.03
  19   1    -0.08   0.05   0.09     0.06  -0.04  -0.07     0.00  -0.00   0.01
  20   1    -0.10   0.04  -0.06     0.08  -0.02   0.05    -0.00   0.00   0.00
  21   1     0.06  -0.12   0.26    -0.03   0.06  -0.12    -0.00  -0.00   0.00
  22   1    -0.21  -0.19   0.06     0.10   0.11  -0.02     0.00  -0.00  -0.00
  23   1     0.26  -0.28   0.01    -0.05   0.05   0.00     0.04   0.04   0.08
  24   1    -0.09  -0.24  -0.29     0.02   0.05   0.05     0.02  -0.02   0.00
                     52                     53                     54
                        a                      a                      a 
 Frequencies --  2947.9258              2948.9126              2964.4747
 Red. masses --     1.9525                 1.8714                 1.8764
 Frc consts  --     0.0000                 0.0000                 0.0000
 IR Inten    --    70.6398                74.8142                 2.2641
 Raman Activ --     0.0000                 0.0000                 0.0000
 Depolar     --     0.0000                 0.0000                 0.0000
 Atom AN      X      Y      Z        X      Y      Z        X      Y      Z
   1   6    -0.01   0.00  -0.00     0.01   0.01   0.00     0.00   0.00  -0.00
   2   6     0.09   0.10  -0.02    -0.19  -0.14   0.05     0.01   0.01  -0.00
   3   6     0.00  -0.19  -0.18     0.01  -0.06  -0.12     0.00   0.01  -0.00
   4   6    -0.01  -0.00  -0.02    -0.00   0.00  -0.01     0.00  -0.00   0.00
   5   6     0.00  -0.00   0.00     0.00   0.00   0.00    -0.01   0.02  -0.01
   6   6     0.00  -0.00  -0.00     0.00  -0.00   0.00     0.07  -0.01   0.15
   7   6     0.00   0.00   0.00    -0.00   0.00  -0.00    -0.14  -0.01  -0.16
   8   6     0.01   0.00   0.01     0.00   0.00   0.00     0.04   0.00   0.04
   9   1     0.02   0.01  -0.01    -0.04  -0.01   0.02    -0.00  -0.00   0.00
  10   1    -0.00   0.01   0.00     0.00  -0.03  -0.01    -0.00   0.00   0.00
  11   1     0.02  -0.01   0.01    -0.01   0.01  -0.01     0.00  -0.00   0.00
  12   1    -0.02  -0.29  -0.05     0.01   0.29   0.06    -0.00  -0.02  -0.00
  13   1    -0.31  -0.08   0.11     0.70   0.20  -0.25    -0.02  -0.01   0.01
  14   1    -0.11   0.13   0.60    -0.08   0.12   0.46    -0.00   0.01   0.03
  15   1     0.11   0.55   0.05     0.02   0.08  -0.01    -0.01  -0.06  -0.01
  16   1     0.03  -0.02   0.06     0.02  -0.01   0.04    -0.01   0.00  -0.01
  17   1    -0.00   0.01  -0.00    -0.00   0.00  -0.00     0.01  -0.07   0.02
  18   1    -0.01  -0.00  -0.01    -0.00  -0.00  -0.00     0.03   0.00   0.03
  19   1    -0.00   0.00  -0.00    -0.00   0.00  -0.00    -0.38   0.10  -0.38
  20   1    -0.00   0.00   0.00     0.00  -0.00  -0.00     0.09  -0.07  -0.18
  21   1    -0.00  -0.00  -0.00     0.00   0.00  -0.00     0.22   0.19   0.02
  22   1    -0.00   0.00  -0.00     0.00  -0.00   0.01     0.29  -0.16   0.57
  23   1    -0.01  -0.01  -0.02    -0.01  -0.01  -0.02    -0.08  -0.07  -0.15
  24   1    -0.01   0.01  -0.00     0.00   0.00   0.00    -0.06   0.05  -0.02
                     55                     56                     57
                        a                      a                      a 
 Frequencies --  2969.2751              2974.0604              2979.6075
 Red. masses --     1.5567                 1.8939                 1.5464
 Frc consts  --     0.0000                 0.0000                 0.0000
 IR Inten    --   119.8825                61.4882                96.0219
 Raman Activ --     0.0000                 0.0000                 0.0000
 Depolar     --     0.0000                 0.0000                 0.0000
 Atom AN      X      Y      Z        X      Y      Z        X      Y      Z
   1   6     0.01   0.01   0.00     0.00   0.00   0.00    -0.02   0.02  -0.01
   2   6    -0.04  -0.07   0.01    -0.01   0.01   0.00     0.07  -0.18  -0.07
   3   6    -0.06  -0.17   0.10    -0.00  -0.01   0.01     0.01  -0.01  -0.04
   4   6     0.00  -0.01   0.02     0.01  -0.00   0.01    -0.00   0.00  -0.01
   5   6    -0.00   0.02  -0.01     0.02  -0.05   0.03     0.00  -0.01   0.01
   6   6     0.01   0.00   0.02    -0.11   0.02  -0.18    -0.01   0.00  -0.01
   7   6    -0.01  -0.00  -0.01    -0.10   0.00  -0.12    -0.01   0.00  -0.02
   8   6    -0.01  -0.00  -0.01     0.06   0.01   0.07    -0.02   0.00  -0.01
   9   1    -0.01  -0.00   0.01    -0.01  -0.00   0.00     0.01   0.01  -0.01
  10   1    -0.00  -0.03  -0.00     0.00  -0.00  -0.00    -0.01  -0.07  -0.02
  11   1    -0.01   0.01  -0.00    -0.00   0.00  -0.00     0.07  -0.04   0.04
  12   1     0.02   0.18   0.03    -0.01  -0.04  -0.01     0.12   0.82   0.13
  13   1     0.14   0.03  -0.05     0.03   0.01  -0.01    -0.39  -0.15   0.13
  14   1     0.08  -0.15  -0.49     0.01  -0.01  -0.04    -0.03   0.04   0.15
  15   1     0.14   0.76   0.12     0.01   0.04   0.01     0.00  -0.01  -0.00
  16   1    -0.03   0.01  -0.05    -0.02   0.01  -0.04     0.01  -0.01   0.02
  17   1     0.01  -0.07   0.02    -0.03   0.17  -0.05    -0.01   0.04  -0.01
  18   1     0.00   0.00   0.00    -0.06  -0.01  -0.07    -0.01  -0.00  -0.01
  19   1    -0.04   0.01  -0.04     0.48  -0.12   0.49     0.03  -0.01   0.03
  20   1     0.01  -0.01  -0.03    -0.08   0.05   0.13    -0.01   0.00   0.01
  21   1     0.01   0.01   0.00     0.13   0.11   0.01     0.01   0.01  -0.00
  22   1     0.02  -0.01   0.03     0.21  -0.11   0.42     0.03  -0.01   0.05
  23   1     0.02   0.02   0.04    -0.12  -0.11  -0.23     0.02   0.02   0.03
  24   1     0.00  -0.00  -0.00    -0.08   0.07  -0.02     0.03  -0.02   0.01
                     58                     59                     60
                        a                      a                      a 
 Frequencies --  2984.1407              2990.0003              2996.9799
 Red. masses --     1.8063                 1.8161                 1.6456
 Frc consts  --     0.0000                 0.0000                 0.0000
 IR Inten    --    94.0606               200.2936                88.3295
 Raman Activ --     0.0000                 0.0000                 0.0000
 Depolar     --     0.0000                 0.0000                 0.0000
 Atom AN      X      Y      Z        X      Y      Z        X      Y      Z
   1   6     0.00  -0.00   0.00    -0.00   0.00  -0.00     0.00   0.00   0.00
   2   6    -0.01   0.02   0.01     0.00   0.00  -0.00    -0.00   0.00   0.00
   3   6     0.00   0.00  -0.00     0.00   0.01  -0.01    -0.00  -0.00  -0.00
   4   6    -0.01   0.00  -0.02    -0.01   0.01  -0.02    -0.00   0.00  -0.00
   5   6     0.03  -0.09   0.05    -0.05   0.21  -0.10     0.02  -0.02   0.02
   6   6    -0.02   0.01   0.02    -0.01  -0.00  -0.09     0.10  -0.06  -0.13
   7   6    -0.02   0.04  -0.08    -0.00   0.03  -0.05    -0.11  -0.10  -0.00
   8   6    -0.12  -0.06  -0.18    -0.04  -0.02  -0.06    -0.04  -0.01  -0.05
   9   1    -0.00  -0.00   0.00     0.00   0.00  -0.00    -0.00  -0.00   0.00
  10   1     0.00   0.00   0.00    -0.00  -0.01  -0.00     0.00  -0.01  -0.00
  11   1    -0.00   0.00  -0.00     0.00  -0.00   0.00    -0.00   0.00  -0.00
  12   1    -0.01  -0.07  -0.01    -0.00  -0.01  -0.00    -0.00  -0.02  -0.00
  13   1     0.03   0.01  -0.01    -0.01  -0.00   0.00     0.01   0.00  -0.00
  14   1    -0.00   0.00   0.02    -0.01   0.01   0.04     0.00  -0.00  -0.00
  15   1    -0.00  -0.01  -0.00    -0.01  -0.04  -0.01     0.00   0.00   0.00
  16   1     0.03  -0.02   0.05     0.04  -0.02   0.07     0.00  -0.00   0.01
  17   1    -0.05   0.32  -0.11     0.13  -0.78   0.26    -0.01   0.09  -0.03
  18   1    -0.05  -0.01  -0.06     0.06   0.03   0.08    -0.05  -0.00  -0.07
  19   1     0.04  -0.01   0.05     0.12  -0.03   0.11    -0.12   0.02  -0.16
  20   1     0.04  -0.03  -0.11    -0.08   0.06   0.19    -0.24   0.20   0.64
  21   1    -0.10  -0.07  -0.03    -0.09  -0.06  -0.02     0.45   0.34   0.08
  22   1     0.16  -0.07   0.29     0.11  -0.05   0.20    -0.07   0.01  -0.10
  23   1     0.35   0.32   0.64     0.12   0.11   0.21     0.08   0.08   0.15
  24   1     0.09  -0.09   0.01     0.01  -0.02  -0.00     0.05  -0.05   0.01
                     61                     62                     63
                        a                      a                      a 
 Frequencies --  3004.6128              3018.6230              3027.3578
 Red. masses --     1.6116                 1.9129                 1.6395
 Frc consts  --     0.0000                 0.0000                 0.0000
 IR Inten    --   126.5218               100.9269               121.0651
 Raman Activ --     0.0000                 0.0000                 0.0000
 Depolar     --     0.0000                 0.0000                 0.0000
 Atom AN      X      Y      Z        X      Y      Z        X      Y      Z
   1   6     0.01  -0.00   0.00    -0.19   0.20  -0.07    -0.11  -0.17  -0.06
   2   6    -0.00  -0.00   0.00    -0.02   0.03   0.01    -0.01  -0.02  -0.00
   3   6    -0.00  -0.00   0.00    -0.00   0.00   0.01    -0.00  -0.01   0.00
   4   6     0.01  -0.00   0.01     0.00   0.00   0.00    -0.00   0.00  -0.00
   5   6     0.02  -0.04   0.03    -0.01  -0.00  -0.01    -0.06  -0.02  -0.08
   6   6     0.10  -0.05  -0.08     0.00  -0.00  -0.00     0.00  -0.00  -0.02
   7   6     0.12   0.12  -0.03     0.00   0.00  -0.00    -0.00   0.00  -0.00
   8   6     0.04   0.00   0.04    -0.00   0.01   0.00     0.00  -0.01  -0.00
   9   1    -0.01  -0.01   0.01     0.07   0.07  -0.05     0.10   0.02  -0.06
  10   1     0.00   0.00   0.00    -0.06  -0.40  -0.09     0.03   0.78   0.14
  11   1    -0.01   0.01  -0.01     0.66  -0.38   0.37     0.27  -0.19   0.15
  12   1     0.00   0.01   0.00    -0.02  -0.09  -0.01     0.01   0.04   0.00
  13   1     0.00   0.00  -0.00     0.06   0.02  -0.02     0.03   0.01  -0.01
  14   1     0.00  -0.01  -0.02     0.00  -0.01  -0.03    -0.00  -0.00  -0.00
  15   1     0.00   0.02   0.00    -0.00  -0.01   0.00     0.00   0.02   0.00
  16   1    -0.02   0.01  -0.03    -0.00   0.00  -0.00     0.00  -0.00   0.01
  17   1    -0.02   0.16  -0.05    -0.00   0.02  -0.01    -0.02   0.07  -0.04
  18   1    -0.05  -0.01  -0.06     0.03  -0.00   0.04     0.25  -0.01   0.32
  19   1    -0.17   0.04  -0.20    -0.00   0.00  -0.00     0.01  -0.00   0.01
  20   1    -0.18   0.15   0.48    -0.01   0.00   0.01    -0.02   0.01   0.05
  21   1    -0.53  -0.40  -0.11    -0.01  -0.01  -0.00     0.00   0.00   0.00
  22   1     0.13  -0.04   0.20     0.00  -0.00   0.00     0.00  -0.00   0.01
  23   1    -0.06  -0.06  -0.12    -0.01  -0.00  -0.01     0.01   0.01   0.01
  24   1    -0.09   0.07  -0.03     0.02  -0.01   0.01    -0.02   0.02  -0.01
                     64                     65                     66
                        a                      a                      a 
 Frequencies --  3031.6066              3033.2502              3050.2689
 Red. masses --     1.6385                 1.6372                 1.5949
 Frc consts  --     0.0000                 0.0000                 0.0000
 IR Inten    --    22.1605                51.4593                44.4216
 Raman Activ --     0.0000                 0.0000                 0.0000
 Depolar     --     0.0000                 0.0000                 0.0000
 Atom AN      X      Y      Z        X      Y      Z        X      Y      Z
   1   6    -0.06  -0.07  -0.03    -0.02  -0.01  -0.01     0.18   0.09  -0.12
   2   6    -0.01  -0.01   0.00     0.00  -0.01  -0.00     0.01   0.01  -0.01
   3   6    -0.00   0.00   0.00     0.00   0.00  -0.00     0.00  -0.00  -0.00
   4   6     0.00   0.00   0.01     0.00  -0.00   0.00    -0.00   0.00  -0.00
   5   6     0.13   0.04   0.16     0.04   0.01   0.04     0.00   0.00  -0.00
   6   6     0.00   0.00   0.03    -0.00   0.00   0.01    -0.00   0.00   0.00
   7   6     0.00   0.00  -0.00     0.00  -0.02   0.02     0.00  -0.00   0.00
   8   6    -0.04   0.04  -0.00     0.16  -0.16   0.03     0.00  -0.00   0.00
   9   1     0.05   0.01  -0.03     0.03   0.01  -0.02    -0.81  -0.34   0.35
  10   1     0.02   0.34   0.06     0.00   0.05   0.01     0.03   0.09   0.00
  11   1     0.16  -0.11   0.09     0.05  -0.04   0.03     0.16  -0.06   0.06
  12   1    -0.00   0.01   0.00     0.01   0.04   0.00    -0.00  -0.02  -0.00
  13   1     0.02   0.01  -0.01    -0.01  -0.00   0.00    -0.04  -0.01   0.01
  14   1     0.00  -0.00  -0.01    -0.00   0.00   0.01    -0.00   0.00   0.00
  15   1    -0.00  -0.01  -0.00    -0.00  -0.01  -0.00     0.00   0.00  -0.00
  16   1    -0.01   0.01  -0.01    -0.00   0.00  -0.01     0.00  -0.00   0.00
  17   1     0.04  -0.14   0.07     0.01  -0.04   0.02     0.00  -0.00   0.00
  18   1    -0.51   0.01  -0.65    -0.14   0.00  -0.18    -0.00   0.00   0.00
  19   1    -0.02   0.01  -0.02    -0.01   0.00  -0.01     0.00   0.00   0.00
  20   1     0.03  -0.02  -0.07     0.02  -0.01  -0.04     0.00  -0.00  -0.01
  21   1    -0.02  -0.01  -0.00     0.05   0.03   0.01     0.00   0.00   0.00
  22   1     0.00  -0.00   0.00    -0.05   0.02  -0.09    -0.00   0.00  -0.01
  23   1    -0.04  -0.02  -0.06     0.12   0.06   0.17     0.00   0.00   0.01
  24   1     0.19  -0.13   0.07    -0.70   0.50  -0.26    -0.01   0.01  -0.01
