      -----------------------------------------------------------      
     |                   =====================                   |     
     |                           x T B                           |     
     |                   =====================                   |     
     |                         S. Grimme                         |     
     |          Mulliken Center for Theoretical Chemistry        |     
     |                    University of Bonn                     |     
      -----------------------------------------------------------      

   * xtb version 6.7.1 (edcfbbe) compiled by 'albert@albert-system' on 2024-07-22

   xtb is free software: you can redistribute it and/or modify it under
   the terms of the GNU Lesser General Public License as published by
   the Free Software Foundation, either version 3 of the License, or
   (at your option) any later version.
   
   xtb is distributed in the hope that it will be useful,
   but WITHOUT ANY WARRANTY; without even the implied warranty of
   MERCHANTABILITY or FITNESS FOR A PARTICULAR PURPOSE.  See the
   GNU Lesser General Public License for more details.
   
   Cite this work as:
   * C. Bannwarth, E. Caldeweyher, S. Ehlert, A. Hansen, P. Pracht,
     J. Seibert, S. Spicher, S. Grimme, WIREs Comput. Mol. Sci., 2020, 11,
     e01493. DOI: 10.1002/wcms.1493
   
   for GFN2-xTB:
   * C. Bannwarth, S. Ehlert and S. Grimme., J. Chem. Theory Comput., 2019,
     15, 1652-1671. DOI: 10.1021/acs.jctc.8b01176
   for GFN1-xTB:
   * S. Grimme, C. Bannwarth, P. Shushkov, J. Chem. Theory Comput., 2017,
     13, 1989-2009. DOI: 10.1021/acs.jctc.7b00118
   for GFN0-xTB:
   * P. Pracht, E. Caldeweyher, S. Ehlert, S. Grimme, ChemRxiv, 2019, preprint.
     DOI: 10.26434/chemrxiv.8326202.v1
   for GFN-FF:
   * S. Spicher and S. Grimme, Angew. Chem. Int. Ed., 2020, 59, 15665-15673.
     DOI: 10.1002/anie.202004239
   
   for ALPB and GBSA implicit solvation:
   * S. Ehlert, M. Stahn, S. Spicher, S. Grimme, J. Chem. Theory Comput.,
     2021, 17, 4250-4261. DOI: 10.1021/acs.jctc.1c00471
   
   for ddCOSMO and CPCM-X implicit solvation:
   * M. Stahn, S. Ehlert, S. Grimme, J. Phys. Chem. A,
     2023, XX, XXXX-XXXX. DOI: 10.1021/acs.jpca.3c04382
   
   for DFT-D4:
   * E. Caldeweyher, C. Bannwarth and S. Grimme, J. Chem. Phys., 2017,
     147, 034112. DOI: 10.1063/1.4993215
   * E. Caldeweyher, S. Ehlert, A. Hansen, H. Neugebauer, S. Spicher,
     C. Bannwarth and S. Grimme, J. Chem. Phys., 2019, 150, 154122.
     DOI: 10.1063/1.5090222
   * E. Caldeweyher, J.-M. Mewes, S. Ehlert and S. Grimme, Phys. Chem. Chem. Phys.
     2020, 22, 8499-8512. DOI: 10.1039/D0CP00502A
   
   for sTDA-xTB:
   * S. Grimme and C. Bannwarth, J. Chem. Phys., 2016, 145, 054103.
     DOI: 10.1063/1.4959605
   
   in the mass-spec context:
   * V. Asgeirsson, C. Bauer and S. Grimme, Chem. Sci., 2017, 8, 4879.
     DOI: 10.1039/c7sc00601b
   * J. Koopman and S. Grimme, ACS Omega 2019, 4, 12, 15120-15133.
     DOI: 10.1021/acsomega.9b02011
   
   for metadynamics refer to:
   * S. Grimme, J. Chem. Theory Comput., 2019, 155, 2847-2862
     DOI: 10.1021/acs.jctc.9b00143
   
   for SPH calculations refer to:
   * S. Spicher and S. Grimme, J. Chem. Theory Comput., 2021, 17, 1701-1714
     DOI: 10.1021/acs.jctc.0c01306
   
   for ONIOM refer to:
   * C. Plett, A. Katbashev, S. Ehlert, S. Grimme, M. Bursch,
     Phys. Chem. Chem. Phys., 2023, 25, 17860-17868. DOI: 10.1039/D3CP02178E
   
   for DIPRO refer to:
   * J. Kohn, N. Gildemeister, S. Grimme, D. Fazzi, A. Hansen,
     J. Chem. Phys., 2023, just accepted.
   
   for PTB refer to:
   * S. Grimme, M. Mueller, A. Hansen, J. Chem. Phys., 2023, 158, 124111.
     DOI: 10.1063/5.0137838
   
   with help from (in alphabetical order)
   P. Atkinson, C. Bannwarth, F. Bohle, G. Brandenburg, E. Caldeweyher
   M. Checinski, S. Dohm, S. Ehlert, S. Ehrlich, I. Gerasimov, C. Hölzer
   A. Katbashev, J. Kohn, J. Koopman, C. Lavigne, S. Lehtola, F. März, M. Müller,
   F. Musil, H. Neugebauer, J. Pisarek, C. Plett, P. Pracht, F. Pultar,
   J. Seibert, P. Shushkov, S. Spicher, M. Stahn, M. Steiner, T. Strunk,
   J. Stückrath, T. Rose, and J. Unsleber
   
 * started run on 2025/04/11 at 11:10:56.245     
   ID    Z sym.   atoms
    1    6 C      1-4, 6
    2    1 H      5, 8-18
    3    8 O      7

           -------------------------------------------------
          |                Calculation Setup                |
           -------------------------------------------------

          program call               : /srv/scratch/z5358697/.xtb/bin/xtb solv.coord --gfn2 --sp --chrg 0 --norestart --parallel 1 --alpb water reference -I xtb_sp-xcontrol-inp
          hostname                   : k128
          coordinate file            : solv.coord
          omp threads                :                     1


           -------------------------------------------------
          |                 G F N 2 - x T B                 |
           -------------------------------------------------

        Reference                      10.1021/acs.jctc.8b01176
      * Hamiltonian:
        H0-scaling (s, p, d)           1.850000    2.230000    2.230000
        zeta-weighting                 0.500000
      * Dispersion:
        s8                             2.700000
        a1                             0.520000
        a2                             5.000000
        s9                             5.000000
      * Repulsion:
        kExp                           1.500000    1.000000
        rExp                           1.000000
      * Coulomb:
        alpha                          2.000000
        third order                    shell-resolved
        anisotropic                    true
        a3                             3.000000
        a5                             4.000000
        cn-shift                       1.200000
        cn-exp                         4.000000
        max-rad                        5.000000

      * Solvation model:               ALPB
        Solvent                        water
        Parameter file                 internal GFN2-xTB/ALPB
        Dielectric constant                8.0200E+01
        Reference state                gsolv=reference [X=1]
        Free energy shift                  2.8945E-03 Eh       1.8164E+00 kcal/mol
        Temperature                        2.9815E+02 K
        Density                            1.0000E+00 kg/L
        Solvent mass                       1.8000E+01 g/mol
        Interaction kernel             P16
        Born radius scaling (c1)           1.4744E+00
        Born radii integrator          GBOBC
        Born offset                        0.0000E+00 a0       0.0000E+00 AA
        H-bond correction              true
        Ion screening                  false
        Surface tension                    1.0000E-05 Eh       1.5569E+01 dyn/cm
        Grid points                               974 per atom

          ...................................................
          :                      SETUP                      :
          :.................................................:
          :  # basis functions                  36          :
          :  # atomic orbitals                  36          :
          :  # shells                           24          :
          :  # electrons                        38          :
          :  max. iterations                   250          :
          :  Hamiltonian                  GFN2-xTB          :
          :  restarted?                      false          :
          :  GBSA solvation                   true          :
          :  PC potential                    false          :
          :  electronic temp.          300.0000000     K    :
          :  accuracy                    1.0000000          :
          :  -> integral cutoff          0.2500000E+02      :
          :  -> integral neglect         0.1000000E-07      :
          :  -> SCF convergence          0.1000000E-05 Eh   :
          :  -> wf. convergence          0.1000000E-03 e    :
          :  Broyden damping             0.4000000          :
          :  net charge                          0          :
          :  unpaired electrons                  0          :
          ...................................................

 iter      E             dE          RMSdq      gap      omega  full diag
   1    -21.1235861 -0.211236E+02  0.307E+00   12.16       0.0  T
   2    -21.1547233 -0.311372E-01  0.164E+00   11.92       1.0  T
   3    -21.1556094 -0.886117E-03  0.618E-01   11.92       1.0  T
   4    -21.1558844 -0.274930E-03  0.137E-01   11.91       1.0  T
   5    -21.1559507 -0.663180E-04  0.667E-02   11.93       1.0  T
   6    -21.1559530 -0.230761E-05  0.103E-02   11.94       2.3  T
   7    -21.1559532 -0.228320E-06  0.488E-03   11.94       4.8  T
   8    -21.1559533 -0.496972E-07  0.196E-03   11.94      12.0  T
   9    -21.1559533 -0.535827E-08  0.579E-04   11.94      40.7  T
  10    -21.1559533 -0.982375E-09  0.146E-04   11.94     161.4  T

   *** convergence criteria satisfied after 10 iterations ***

         #    Occupation            Energy/Eh            Energy/eV
      -------------------------------------------------------------
         1        2.0000           -0.6833945             -18.5961
       ...           ...                  ...                  ...
        13        2.0000           -0.4680366             -12.7359
        14        2.0000           -0.4553449             -12.3906
        15        2.0000           -0.4457560             -12.1296
        16        2.0000           -0.4348144             -11.8319
        17        2.0000           -0.4317448             -11.7484
        18        2.0000           -0.4182825             -11.3820
        19        2.0000           -0.4035712             -10.9817 (HOMO)
        20                          0.0351986               0.9578 (LUMO)
        21                          0.0902199               2.4550
        22                          0.1086531               2.9566
        23                          0.1202318               3.2717
        24                          0.1295268               3.5246
       ...                                ...                  ...
        36                          0.3036700               8.2633
      -------------------------------------------------------------
                  HL-Gap            0.4387698 Eh           11.9395 eV
             Fermi-level           -0.1841863 Eh           -5.0120 eV

 SCC (total)                   0 d,  0 h,  0 min,  0.023 sec
 SCC setup                      ...        0 min,  0.001 sec (  4.906%)
 Dispersion                     ...        0 min,  0.000 sec (  0.408%)
 classical contributions        ...        0 min,  0.000 sec (  0.094%)
 integral evaluation            ...        0 min,  0.001 sec (  5.324%)
 iterations                     ...        0 min,  0.017 sec ( 72.974%)
 molecular gradient             ...        0 min,  0.004 sec ( 15.575%)
 printout                       ...        0 min,  0.000 sec (  0.655%)

         :::::::::::::::::::::::::::::::::::::::::::::::::::::
         ::                     SUMMARY                     ::
         :::::::::::::::::::::::::::::::::::::::::::::::::::::
         :: total energy             -20.893678525042 Eh    ::
         :: total w/o Gsasa/hb       -20.891440166426 Eh    ::
         :: gradient norm              0.000027680490 Eh/a0 ::
         :: HOMO-LUMO gap             11.939535137972 eV    ::
         ::.................................................::
         :: SCC energy               -21.155919808898 Eh    ::
         :: -> isotropic ES            0.037587724631 Eh    ::
         :: -> anisotropic ES          0.004165913922 Eh    ::
         :: -> anisotropic XC          0.007936449930 Eh    ::
         :: -> dispersion             -0.009961167015 Eh    ::
         :: -> Gsolv                  -0.006731438064 Eh    ::
         ::    -> Gelec               -0.004493079447 Eh    ::
         ::    -> Gsasa                0.000412892452 Eh    ::
         ::    -> Ghb                 -0.005545800229 Eh    ::
         ::    -> Gshift               0.002894549160 Eh    ::
         :: repulsion energy           0.262241283855 Eh    ::
         :: add. restraining           0.000000000000 Eh    ::
         :: total charge              -0.000000000000 e     ::
         :::::::::::::::::::::::::::::::::::::::::::::::::::::

           -------------------------------------------------
          |                Property Printout                |
           -------------------------------------------------

    * Orbital Energies and Occupations

         #    Occupation            Energy/Eh            Energy/eV
      -------------------------------------------------------------
         1        2.0000           -0.6833945             -18.5961
       ...           ...                  ...                  ...
         7        2.0000           -0.5461077             -14.8603
         8        2.0000           -0.5207902             -14.1714
         9        2.0000           -0.5185180             -14.1096
        10        2.0000           -0.4901379             -13.3373
        11        2.0000           -0.4869104             -13.2495
        12        2.0000           -0.4730413             -12.8721
        13        2.0000           -0.4680366             -12.7359
        14        2.0000           -0.4553449             -12.3906
        15        2.0000           -0.4457560             -12.1296
        16        2.0000           -0.4348144             -11.8319
        17        2.0000           -0.4317448             -11.7484
        18        2.0000           -0.4182825             -11.3820
        19        2.0000           -0.4035712             -10.9817 (HOMO)
        20                          0.0351986               0.9578 (LUMO)
        21                          0.0902199               2.4550
        22                          0.1086531               2.9566
        23                          0.1202318               3.2717
        24                          0.1295268               3.5246
        25                          0.1378394               3.7508
        26                          0.1455840               3.9615
        27                          0.1641030               4.4655
        28                          0.1914954               5.2109
        29                          0.2039710               5.5503
        30                          0.2237134               6.0876
       ...                                ...                  ...
        36                          0.3036700               8.2633
      -------------------------------------------------------------
                  HL-Gap            0.4387698 Eh           11.9395 eV
             Fermi-level           -0.1841863 Eh           -5.0120 eV

     #   Z          covCN         q      C6AA      α(0)
     1   6 C        3.751    -0.113    22.715     6.797
     2   6 C        3.800    -0.062    21.689     6.631
     3   6 C        3.802    -0.070    21.831     6.652
     4   6 C        3.722     0.119    18.735     6.181
     5   1 H        0.923     0.013     2.836     2.634
     6   6 C        3.752    -0.128    23.024     6.843
     7   8 O        1.655    -0.528    23.492     6.543
     8   1 H        0.925     0.041     2.438     2.442
     9   1 H        0.925     0.039     2.464     2.455
    10   1 H        0.925     0.036     2.508     2.477
    11   1 H        0.924     0.038     2.475     2.460
    12   1 H        0.924     0.039     2.462     2.454
    13   1 H        0.924     0.042     2.427     2.436
    14   1 H        0.924     0.042     2.417     2.431
    15   1 H        0.925     0.044     2.398     2.422
    16   1 H        0.925     0.049     2.327     2.385
    17   1 H        0.925     0.049     2.330     2.387
    18   1 H        0.805     0.348     0.592     1.209

 Mol. C6AA /au·bohr⁶  :       2115.467531
 Mol. C8AA /au·bohr⁸  :      43652.973830
 Mol. α(0) /au        :         67.838967


Wiberg/Mayer (AO) data.
largest (>0.10) Wiberg bond orders for each atom

 ---------------------------------------------------------------------------
     #   Z sym  total        # sym  WBO       # sym  WBO       # sym  WBO
 ---------------------------------------------------------------------------
     1   6 C    3.996 --     2 C    1.020     9 H    0.987     8 H    0.987
                            10 H    0.986
     2   6 C    3.997 --     1 C    1.020     3 C    1.008    12 H    0.978
                            11 H    0.976
     3   6 C    3.995 --     2 C    1.008     4 C    0.993    13 H    0.976
                            14 H    0.975
     4   6 C    3.950 --     6 C    1.004     3 C    0.993     7 O    0.974
                             5 H    0.961
     5   1 H    1.000 --     4 C    0.961
     6   6 C    3.995 --     4 C    1.004    17 H    0.986    15 H    0.984
                            16 H    0.982
     7   8 O    1.903 --     4 C    0.974    18 H    0.863
     8   1 H    0.998 --     1 C    0.987
     9   1 H    0.998 --     1 C    0.987
    10   1 H    0.999 --     1 C    0.986
    11   1 H    0.999 --     2 C    0.976
    12   1 H    0.998 --     2 C    0.978
    13   1 H    0.998 --     3 C    0.976
    14   1 H    0.998 --     3 C    0.975
    15   1 H    0.998 --     6 C    0.984
    16   1 H    0.998 --     6 C    0.982
    17   1 H    0.998 --     6 C    0.986
    18   1 H    0.878 --     7 O    0.863
 ---------------------------------------------------------------------------

Topologies differ in total number of bonds
Writing topology from bond orders to xtbtopo.mol

molecular dipole:
                 x           y           z       tot (Debye)
 q only:       -0.046      -0.508      -0.409
   full:       -0.127      -0.576      -0.562       2.071
molecular quadrupole (traceless):
                xx          xy          yy          xz          yz          zz
 q only:        2.966       0.722      -2.573       2.999      -1.438      -0.393
  q+dip:        3.087       1.702      -3.398       4.102      -2.187       0.311
   full:        3.416       1.274      -3.418       4.090      -2.001       0.002


           -------------------------------------------------
          | TOTAL ENERGY              -20.893678525042 Eh   |
          | GRADIENT NORM               0.000027680490 Eh/α |
          | HOMO-LUMO GAP              11.939535137972 eV   |
           -------------------------------------------------

------------------------------------------------------------------------
 * finished run on 2025/04/11 at 11:10:56.308     
------------------------------------------------------------------------
 total:
 * wall-time:     0 d,  0 h,  0 min,  0.062 sec
 *  cpu-time:     0 d,  0 h,  0 min,  0.020 sec
 * ratio c/w:     0.328 speedup
 SCF:
 * wall-time:     0 d,  0 h,  0 min,  0.024 sec
 *  cpu-time:     0 d,  0 h,  0 min,  0.012 sec
 * ratio c/w:     0.502 speedup

