
                                 *****************
                                 * O   R   C   A *
                                 *****************

                                            #,                                       
                                            ###                                      
                                            ####                                     
                                            #####                                    
                                            ######                                   
                                           ########,                                 
                                     ,,################,,,,,                         
                               ,,#################################,,                 
                          ,,##########################################,,             
                       ,#########################################, ''#####,          
                    ,#############################################,,   '####,        
                  ,##################################################,,,,####,       
                ,###########''''           ''''###############################       
              ,#####''   ,,,,##########,,,,          '''####'''          '####       
            ,##' ,,,,###########################,,,                        '##       
           ' ,,###''''                  '''############,,,                           
         ,,##''                                '''############,,,,        ,,,,,,###''
      ,#''                                            '''#######################'''  
     '                                                          ''''####''''         
             ,#######,   #######,   ,#######,      ##                                
            ,#'     '#,  ##    ##  ,#'     '#,    #''#        ,####,   ,####,        
            ##       ##  ##   ,#'  ##            #'  '#       #'       #'  '#        
            ##       ##  #######   ##           ,######,      #####,   #    #        
            '#,     ,#'  ##    ##  '#,     ,#' ,#      #,     #,   #   #,  ,#        
             '#######'   ##     ##  '#######'  #'      '#     '####' # '####'        



                #########################################################
                #                        -***-                          #
                #          Department of theory and spectroscopy        #
                #                                                       #
                #                      Frank Neese                      #
                #                                                       #
                #     Directorship, Architecture, Infrastructure        #
                #                    SHARK, DRIVERS                     #
                #        Core code/Algorithms in most modules           #
                #                                                       #
                #        Max Planck Institute fuer Kohlenforschung      #
                #                Kaiser Wilhelm Platz 1                 #
                #                 D-45470 Muelheim/Ruhr                 #
                #                      Germany                          #
                #                                                       #
                #                  All rights reserved                  #
                #                        -***-                          #
                #########################################################


                         Program Version 6.0.0  -   RELEASE  -


 With contributions from (in alphabetic order):
   Daniel Aravena         : Magnetic Suceptibility
   Michael Atanasov       : Ab Initio Ligand Field Theory (pilot matlab implementation)
   Alexander A. Auer      : GIAO ZORA, VPT2 properties, NMR spectrum
   Ute Becker             : All parallelization in ORCA, NUMFREQ, NUMCALC
   Giovanni Bistoni       : ED, misc. LED, open-shell LED, HFLD
   Martin Brehm           : Molecular dynamics
   Dmytro Bykov           : pre 5.0 version of the SCF Hessian
   Marcos Casanova-Páez   : Triplet and SCS-CIS(D). UHF-(DLPNO)-IP/EA/STEOM-CCSD. UHF-CVS-IP/STEOM-CCSD
   Vijay G. Chilkuri      : MRCI spin determinant printing, contributions to CSF-ICE
   Pauline Colinet        : FMM embedding
   Dipayan Datta          : RHF DLPNO-CCSD density
   Achintya Kumar Dutta   : EOM-CC, STEOM-CC
   Nicolas Foglia         : Exact transition moments, OPA infrastructure, MCD improvements
   Dmitry Ganyushin       : Spin-Orbit,Spin-Spin,Magnetic field MRCI
   Miquel Garcia          : C-PCM and meta-GGA Hessian, CCSD/C-PCM, Gaussian charge scheme
   Tiago L. C. Gouveia    : GS-ROHF, GS-ROCIS
   Yang Guo               : DLPNO-NEVPT2, F12-NEVPT2, CIM, IAO-localization
   Andreas Hansen         : Spin unrestricted coupled pair/coupled cluster methods
   Ingolf Harden          : AUTO-CI MPn and infrastructure 
   Benjamin Helmich-Paris : MC-RPA, TRAH-(SCF,CASSCF), AVAS, COSX integrals, SCF dyn. polar.
   Lee Huntington         : MR-EOM, pCC
   Robert Izsak           : Overlap fitted RIJCOSX, COSX-SCS-MP3, EOM
   Riya Kayal             : Wick's Theorem for AUTO-CI, AUTO-CI UHF-CCSDT
   Emily Kempfer          : AUTO-CI, RHF CISDT and CCSDT
   Christian Kollmar      : KDIIS, OOCD, Brueckner-CCSD(T), CCSD density, CASPT2, CASPT2-K, improved NEVPT2
   Axel Koslowski         : Symmetry handling
   Simone Kossmann        : Meta GGA functionals, TD-DFT gradient, OOMP2, (MP2 Hessian; deprecated post 5.0)
   Lucas Lang             : DCDCAS
   Marvin Lechner         : AUTO-CI (C++ implementation), FIC-MRCC
   Spencer Leger          : CASSCF response
   Dagmar Lenk            : GEPOL surface, SMD, ORCA-2-JSON
   Dimitrios Liakos       : Extrapolation schemes; Compound Job, initial MDCI parallelization
   Dimitrios Manganas     : Further ROCIS development; embedding schemes. LFT, Crystal Embedding
   Dimitrios Pantazis     : SARC Basis sets
   Anastasios Papadopoulos: AUTO-CI, single reference methods and gradients
   Taras Petrenko         : pre 6.0 DFT Hessian and TD-DFT gradient, (ASA, deprecated), ECA, 1-Electron XAS/XES, NRVS
   Peter Pinski           : DLPNO-MP2, DLPNO-MP2 Gradient
   Christoph Reimann      : Effective Core Potentials
   Marius Retegan         : Local ZFS, SOC
   Christoph Riplinger    : Optimizer, TS searches, QM/MM, DLPNO-CCSD(T), (RO)-DLPNO pert. Triples
   Michael Roemelt        : Original ROCIS implementation
   Masaaki Saitow         : Open-shell DLPNO-CCSD energy and density
   Barbara Sandhoefer     : DKH picture change effects
   Kantharuban Sivalingam : CASSCF convergence/infrastructure, NEVPT2 and variants, FIC-MRCI
   Bernardo de Souza      : ESD, SOC TD-DFT
   Georgi Stoychev        : AutoAux, RI-MP2 NMR, DLPNO-MP2 response, X2C
   Van Anh Tran           : RI-MP2 g-tensors
   Willem Van den Heuvel  : Paramagnetic NMR
   Zikuan Wang            : NOTCH, Electric field optimization 
   Frank Wennmohs         : Technical directorship and infrastructure
   Hang Xu                : AUTO-CI-Response properties 


 We gratefully acknowledge several colleagues who have allowed us to
 interface, adapt or use parts of their codes:
   Stefan Grimme, W. Hujo, H. Kruse, P. Pracht,  : VdW corrections, initial TS optimization,
                  C. Bannwarth, S. Ehlert,         DFT functionals, gCP, sTDA/sTD-DF
                  L. Wittmann, M. Mueller
   Ed Valeev, F. Pavosevic, A. Kumar             : LibInt (2-el integral package), F12 methods
   Garnet Chan, S. Sharma, J. Yang, R. Olivares  : DMRG
   Ulf Ekstrom                                   : XCFun DFT Library
   Mihaly Kallay                                 : mrcc  (arbitrary order and MRCC methods)
   Frank Weinhold                                : gennbo (NPA and NBO analysis)
   Simon Mueller                                 : openCOSMO-RS
   Christopher J. Cramer and Donald G. Truhlar   : smd solvation model
   Lars Goerigk                                  : TD-DFT with DH, B97 family of functionals
   V. Asgeirsson, H. Jonsson                     : NEB implementation
   FAccTs GmbH                                   : IRC, NEB, NEB-TS, DLPNO-Multilevel, CI-OPT
                                                   MM, QMMM, 2- and 3-layer-ONIOM, Crystal-QMMM,
                                                   LR-CPCM, SF, NACMEs, symmetry and pop. for TD-DFT,
                                                   nearIR, NL-DFT gradient (VV10), updates on ESD,
                                                   ML-optimized integration grids, MBIS, APM,
                                                   GOAT, DOCKER, SOLVATOR, interface openCOSMO-RS
   S Lehtola, MJT Oliveira, MAL Marques          : LibXC Library
   Liviu Ungur et al                             : ANISO software


 Your calculation uses the libint2 library for the computation of 2-el integrals
 For citations please refer to: http://libint.valeyev.net

 Your ORCA version has been built with support for libXC version: 6.2.2
 For citations please refer to: https://libxc.gitlab.io

 This ORCA versions uses:
   CBLAS   interface :  Fast vector & matrix operations
   LAPACKE interface :  Fast linear algebra routines
   SCALAPACK package :  Parallel linear algebra routines
   Shared memory     :  Shared parallel matrices
   BLAS/LAPACK       :  OpenBLAS 0.3.27  USE64BITINT DYNAMIC_ARCH NO_AFFINITY SkylakeX SINGLE_THREADED
        Core in use  :  SkylakeX
   Copyright (c) 2011-2014, The OpenBLAS Project


Your calculation utilizes the geometrical counterpoise correction gCP
Please cite in your paper:
H.Kruse, S. Grimme J.Chem.Phys., 136, (2012), 154101 
   

Your calculation utilizes the atom-pairwise dispersion correction
based on EEQ partial charges (D4)


Your calculation utilizes the SMD solvation module
Please cite in your paper:
A.V. Marenich, C.J. Cramer, D.G. Truhlar J. Phys. Chem. B, 113, (2009), 6378 

================================================================================

----- Orbital basis set information -----
Your calculation utilizes the basis: def2-mTZVPP
   Stefan Grimme, Andreas Hansen, Sebastian Ehlert, and Jan-Michael Mewes 
   J. Chem. Phys. 154, 064103 (2021). DOI: 10.1063/5.0040021

----- AuxJ basis set information -----
Your calculation utilizes the auxiliary basis: def2/J
   F. Weigend, Phys. Chem. Chem. Phys. 8, 1057 (2006).

================================================================================
                                        WARNINGS
                       Please study these warnings very carefully!
================================================================================

Using LibXC functional ID 497 : Re-regularized SCAN exchange by Furness et al
[ 1]  J. W. Furness, A. D. Kaplan, J. Ning, J. P. Perdew, and J. Sun.,  J. Phys. Chem. Lett. 11, 8208-8215 (2020)
[ 2]  J. W. Furness, A. D. Kaplan, J. Ning, J. P. Perdew, and J. Sun.,  J. Phys. Chem. Lett. 11, 9248-9248 (2020)
Using LibXC functional ID 498 : Re-regularized SCAN correlation by Furness et al
[ 1]  J. W. Furness, A. D. Kaplan, J. Ning, J. P. Perdew, and J. Sun.,  J. Phys. Chem. Lett. 11, 8208-8215 (2020)
[ 2]  J. W. Furness, A. D. Kaplan, J. Ning, J. P. Perdew, and J. Sun.,  J. Phys. Chem. Lett. 11, 9248-9248 (2020)
Using LibXC functional ID 497 : Re-regularized SCAN exchange by Furness et al
[ 1]  J. W. Furness, A. D. Kaplan, J. Ning, J. P. Perdew, and J. Sun.,  J. Phys. Chem. Lett. 11, 8208-8215 (2020)
[ 2]  J. W. Furness, A. D. Kaplan, J. Ning, J. P. Perdew, and J. Sun.,  J. Phys. Chem. Lett. 11, 9248-9248 (2020)
Using LibXC functional ID 498 : Re-regularized SCAN correlation by Furness et al
[ 1]  J. W. Furness, A. D. Kaplan, J. Ning, J. P. Perdew, and J. Sun.,  J. Phys. Chem. Lett. 11, 8208-8215 (2020)
[ 2]  J. W. Furness, A. D. Kaplan, J. Ning, J. P. Perdew, and J. Sun.,  J. Phys. Chem. Lett. 11, 9248-9248 (2020)

================================================================================
                                       INPUT FILE
================================================================================
NAME = sp_solv.inp
|  1> ! r2scan-3c def2/J RI DEFGRID2 scfconv6 printgap
|  2> %output
|  3>     printlevel normal
|  4> end
|  5> %cpcm
|  6>     smd true
|  7>     smdsolvent "water"
|  8> end
|  9> * xyz 0 1
| 10> C -1.9693503876 1.4542896091 0.074158467
| 11> C -1.4929372083 0.0747035426 -0.367600225
| 12> C -0.152050277 -0.3434248442 0.2452916652
| 13> H -0.1601260713 -0.1229658223 1.3179934564
| 14> C 0.0794468375 -1.8424410219 0.0602942658
| 15> C 1.0142847694 0.4357379373 -0.3692826074
| 16> O 2.1947276095 0.1468612191 0.3562940995
| 17> H -2.9544349218 1.6583593979 -0.3381183458
| 18> H -2.0338027164 1.5031781947 1.1585892234
| 19> H -1.2933248214 2.2347447646 -0.2647957689
| 20> H -1.4117696158 0.0458168361 -1.4565841435
| 21> H -2.2428013823 -0.6619548794 -0.0728207538
| 22> H -0.6765819244 -2.4143439852 0.5918501785
| 23> H 1.0586174178 -2.1131580375 0.4468312338
| 24> H 0.0362204263 -2.1034312138 -0.9951255813
| 25> H 0.8080944528 1.5125579028 -0.3266711495
| 26> H 1.1321468381 0.1424866257 -1.4217884742
| 27> H 2.9363702609 0.6226673746 -0.0392031929
| 28> *
| 29> 
| 30>                          ****END OF INPUT****
================================================================================

                       ****************************
                       * Single Point Calculation *
                       ****************************

---------------------------------
CARTESIAN COORDINATES (ANGSTROEM)
---------------------------------
  C     -1.969350    1.454290    0.074158
  C     -1.492937    0.074704   -0.367600
  C     -0.152050   -0.343425    0.245292
  H     -0.160126   -0.122966    1.317993
  C      0.079447   -1.842441    0.060294
  C      1.014285    0.435738   -0.369283
  O      2.194728    0.146861    0.356294
  H     -2.954435    1.658359   -0.338118
  H     -2.033803    1.503178    1.158589
  H     -1.293325    2.234745   -0.264796
  H     -1.411770    0.045817   -1.456584
  H     -2.242801   -0.661955   -0.072821
  H     -0.676582   -2.414344    0.591850
  H      1.058617   -2.113158    0.446831
  H      0.036220   -2.103431   -0.995126
  H      0.808094    1.512558   -0.326671
  H      1.132147    0.142487   -1.421788
  H      2.936370    0.622667   -0.039203

----------------------------
CARTESIAN COORDINATES (A.U.)
----------------------------
  NO LB      ZA    FRAG     MASS         X           Y           Z
   0 C     6.0000    0    12.011   -3.721533    2.748209    0.140139
   1 C     6.0000    0    12.011   -2.821242    0.141169   -0.694664
   2 C     6.0000    0    12.011   -0.287333   -0.648979    0.463534
   3 H     1.0000    0     1.008   -0.302594   -0.232372    2.490647
   4 C     6.0000    0    12.011    0.150133   -3.481709    0.113940
   5 C     6.0000    0    12.011    1.916720    0.823425   -0.697843
   6 O     8.0000    0    15.999    4.147434    0.277527    0.673298
   7 H     1.0000    0     1.008   -5.583073    3.133845   -0.638951
   8 H     1.0000    0     1.008   -3.843330    2.840595    2.189416
   9 H     1.0000    0     1.008   -2.444030    4.223056   -0.500391
  10 H     1.0000    0     1.008   -2.667858    0.086581   -2.752545
  11 H     1.0000    0     1.008   -4.238280   -1.250913   -0.137611
  12 H     1.0000    0     1.008   -1.278555   -4.562449    1.118435
  13 H     1.0000    0     1.008    2.000497   -3.993290    0.844389
  14 H     1.0000    0     1.008    0.068447   -3.974909   -1.880515
  15 H     1.0000    0     1.008    1.527077    2.858320   -0.617319
  16 H     1.0000    0     1.008    2.139447    0.269261   -2.686791
  17 H     1.0000    0     1.008    5.548936    1.176671   -0.074083

--------------------------------
INTERNAL COORDINATES (ANGSTROEM)
--------------------------------
 C      0   0   0     0.000000000000     0.00000000     0.00000000
 C      1   0   0     1.524919005800     0.00000000     0.00000000
 C      2   1   0     1.532463891729   113.85016570     0.00000000
 H      3   2   1     1.095151373845   109.29079988    45.80668060
 C      3   2   1     1.528026325955   110.59793418   165.18366943
 C      3   2   1     1.531382910012   111.53581482   287.40840127
 O      6   3   2     1.415399807354   109.00318447   171.99198977
 H      1   2   3     1.087201999903   110.06175177   184.04277551
 H      1   2   3     1.087443912078   110.36993043   303.67745628
 H      1   2   3     1.086743203308   111.40852153    64.15479330
 H      2   1   3     1.092386650704   109.62897413   237.54454796
 H      2   1   3     1.091721964052   108.52077018   120.28430206
 H      5   3   2     1.086832174983   110.58638375   296.65969698
 H      5   3   2     1.086956096395   109.74013969   176.67038689
 H      5   3   2     1.088069600966   110.28738975    56.91906081
 H      6   3   2     1.097210745984   109.91524927    51.72679418
 H      6   3   2     1.098934210334   109.28557571   292.61559203
 H      7   6   3     0.965838199847   109.26558931   178.87189533

---------------------------
INTERNAL COORDINATES (A.U.)
---------------------------
 C      0   0   0     0.000000000000     0.00000000     0.00000000
 C      1   0   0     2.881679297373     0.00000000     0.00000000
 C      2   1   0     2.895937065490   113.85016570     0.00000000
 H      3   2   1     2.069536171754   109.29079988    45.80668060
 C      3   2   1     2.887551281478   110.59793418   165.18366943
 C      3   2   1     2.893894306090   111.53581482   287.40840127
 O      6   3   2     2.674718005904   109.00318447   171.99198977
 H      1   2   3     2.054514032068   110.06175177   184.04277551
 H      1   2   3     2.054971179828   110.36993043   303.67745628
 H      1   2   3     2.053647032153   111.40852153    64.15479330
 H      2   1   3     2.064311602182   109.62897413   237.54454796
 H      2   1   3     2.063055526445   108.52077018   120.28430206
 H      5   3   2     2.053815164251   110.58638375   296.65969698
 H      5   3   2     2.054049341783   109.74013969   176.67038689
 H      5   3   2     2.056153560470   110.28738975    56.91906081
 H      6   3   2     2.073427821106   109.91524927    51.72679418
 H      6   3   2     2.076684696728   109.28557571   292.61559203
 H      7   6   3     1.825169687390   109.26558931   178.87189533

---------------------
BASIS SET INFORMATION
---------------------
There are 3 groups of distinct atoms

 Group   1 Type C   : 11s6p1d contracted to 5s3p1d pattern {62111/411/1}
 Group   2 Type H   : 4s1p contracted to 2s1p pattern {31/1}
 Group   3 Type O   : 11s6p2d contracted to 5s3p2d pattern {62111/411/11}

Atom   0C    basis set group =>   1
Atom   1C    basis set group =>   1
Atom   2C    basis set group =>   1
Atom   3H    basis set group =>   2
Atom   4C    basis set group =>   1
Atom   5C    basis set group =>   1
Atom   6O    basis set group =>   3
Atom   7H    basis set group =>   2
Atom   8H    basis set group =>   2
Atom   9H    basis set group =>   2
Atom  10H    basis set group =>   2
Atom  11H    basis set group =>   2
Atom  12H    basis set group =>   2
Atom  13H    basis set group =>   2
Atom  14H    basis set group =>   2
Atom  15H    basis set group =>   2
Atom  16H    basis set group =>   2
Atom  17H    basis set group =>   2
---------------------------------
AUXILIARY/J BASIS SET INFORMATION
---------------------------------
There are 3 groups of distinct atoms

 Group   1 Type C   : 12s5p4d2f1g contracted to 6s4p3d1f1g pattern {711111/2111/211/2/1}
 Group   2 Type H   : 5s2p1d contracted to 3s1p1d pattern {311/2/1}
 Group   3 Type O   : 12s5p4d2f1g contracted to 6s4p3d1f1g pattern {711111/2111/211/2/1}

Atom   0C    basis set group =>   1
Atom   1C    basis set group =>   1
Atom   2C    basis set group =>   1
Atom   3H    basis set group =>   2
Atom   4C    basis set group =>   1
Atom   5C    basis set group =>   1
Atom   6O    basis set group =>   3
Atom   7H    basis set group =>   2
Atom   8H    basis set group =>   2
Atom   9H    basis set group =>   2
Atom  10H    basis set group =>   2
Atom  11H    basis set group =>   2
Atom  12H    basis set group =>   2
Atom  13H    basis set group =>   2
Atom  14H    basis set group =>   2
Atom  15H    basis set group =>   2
Atom  16H    basis set group =>   2
Atom  17H    basis set group =>   2

Checking for AutoStart:
The File: sp_solv.gbw exists
Trying to determine its content:
     ... Fine, the file contains calculation information
     ... Fine, the calculation information was read
     ... Fine, the file contains a basis set
     ... Fine, the basis set was read
     ... Fine, the file contains a geometry
     ... Fine, the geometry was read
     ... Fine, the file contains a set of orbitals
     ... Fine, the orbitals can be read
     => possible old guess file was deleted
     => GBW file was renamed to GES file
     => GES file is set as startup file
     => Guess is set to MORead
     ... now leaving AutoStart

------------------------------------------------------------------------------
                             ORCA STARTUP CALCULATIONS
                           -- RI-GTO INTEGRALS CHOSEN --
------------------------------------------------------------------------------
------------------------------------------------------------------------------
                   ___                                                        
                  /   \      - P O W E R E D   B Y -                         
                 /     \                                                     
                 |  |  |   _    _      __       _____    __    __             
                 |  |  |  | |  | |    /  \     |  _  \  |  |  /  |          
                  \  \/   | |  | |   /    \    | | | |  |  | /  /          
                 / \  \   | |__| |  /  /\  \   | |_| |  |  |/  /          
                |  |  |   |  __  | /  /__\  \  |    /   |      \           
                |  |  |   | |  | | |   __   |  |    \   |  |\   \          
                \     /   | |  | | |  |  |  |  | |\  \  |  | \   \       
                 \___/    |_|  |_| |__|  |__|  |_| \__\ |__|  \__/        
                                                                              
                      - O R C A' S   B I G   F R I E N D -                    
                                      &                                       
                       - I N T E G R A L  F E E D E R -                       
                                                                              
 v1 FN, 2020, v2 2021, v3 2022-2024                                           
------------------------------------------------------------------------------


----------------------
SHARK INTEGRAL PACKAGE
----------------------

Number of atoms                             ...     18
Number of basis functions                   ...    179
Number of shells                            ...     91
Maximum angular momentum                    ...      2
Integral batch strategy                     ... SHARK/LIBINT Hybrid
RI-J (if used) integral strategy            ... SPLIT-RIJ (Revised 2003 algorithm where possible)
Printlevel                                  ...      1
Contraction scheme used                     ... SEGMENTED contraction
Prescreening option                         ... SCHWARTZ
   Thresh                                   ... 1.000e-10
   Tcut                                     ... 1.000e-11
   Tpresel                                  ... 1.000e-11 
Coulomb Range Separation                    ... NOT USED
Exchange Range Separation                   ... NOT USED
Multipole approximations                    ... NOT USED
Finite Nucleus Model                        ... NOT USED
CABS basis                                  ... NOT available
Auxiliary Coulomb fitting basis             ... AVAILABLE
   # of basis functions in Aux-J            ...    426
   # of shells in Aux-J                     ...    150
   Maximum angular momentum in Aux-J        ...      4
Auxiliary J/K fitting basis                 ... NOT available
Auxiliary Correlation fitting basis         ... NOT available
Auxiliary 'external' fitting basis          ... NOT available

Checking pre-screening integrals            ... done (  0.0 sec) Dimension = 91
Check shell pair data                       ... done (  0.0 sec)
Shell pair information
Shell pair cut-off parameter TPreSel        ...   1.0e-11
Total number of shell pairs                 ...      4186
Shell pairs after pre-screening             ...      3881
Total number of primitive shell pairs       ...     14533
Primitive shell pairs kept                  ...      9968
          la=0 lb=0:   1365 shell pairs
          la=1 lb=0:   1497 shell pairs
          la=1 lb=1:    433 shell pairs
          la=2 lb=0:    360 shell pairs
          la=2 lb=1:    199 shell pairs
          la=2 lb=2:     27 shell pairs

Calculating one electron integrals          ... done (  0.0 sec)
Calculating RI/J V-Matrix + Cholesky decomp.... done (  0.1 sec)
Calculating Nuclear repulsion               ... done (  0.0 sec) ENN=    258.825403141063 Eh

Diagonalization of the overlap matrix:
Smallest eigenvalue                        ... 2.329e-04
Time for diagonalization                   ...    0.003 sec
Threshold for overlap eigenvalues          ... 1.000e-07
Number of eigenvalues below threshold      ... 0
Time for construction of square roots      ...    0.015 sec
Total time needed                          ...    0.028 sec

-------------------
DFT GRID GENERATION
-------------------

General Integration Accuracy     IntAcc      ... 4.388
Radial Grid Type                 RadialGrid  ... OptM3 with GC (2021)
Angular Grid (max. ang.)         AngularGrid ... 4 (Lebedev-302)
Angular grid pruning method      GridPruning ... 4 (adaptive)
Weight generation scheme         WeightScheme... mBecke (2022)
Basis function cutoff            BFCut       ... 1.0000e-10
Integration weight cutoff        WCut        ... 1.0000e-14
Partially contracted basis set               ... off
Rotationally invariant grid construction     ... off
Angular grids for H and He will be reduced by one unit
Diffuse basis detected: some atoms will have their outermost
                        angular grid increased by 1.

Total number of grid points                  ...    74850
Total number of batches                      ...     1179
Average number of points per batch           ...       63
Average number of grid points per atom       ...     4158
Initializing property integral containers    ... done (  0.0 sec)

SHARK setup successfully completed in   1.1 seconds

Maximum memory used throughout the entire STARTUP-calculation: 32.3 MB
-------------------------------------------------------------------------------
                                 ORCA GUESS
                   Start orbitals & Density for SCF / CASSCF
-------------------------------------------------------------------------------

------------
SCF SETTINGS
------------
Hamiltonian:
 Density Functional     Method          .... DFT(GTOs)
  Functional kind                       .... Exchange
  Functional name                       .... Re-regularized SCAN exchange by Furness et al
  Functional family                     .... MGGA
  Functional refs                              
    [ 0] J. W. Furness, A. D. Kaplan, J. Ning, J. P. Perdew, and J. Sun.,  J. Phys. Chem. Lett. 11, 8208-8215 (2020), doi: 10.1021/acs.jpclett.0c02405
    [ 1] J. W. Furness, A. D. Kaplan, J. Ning, J. P. Perdew, and J. Sun.,  J. Phys. Chem. Lett. 11, 9248-9248 (2020), doi: 10.1021/acs.jpclett.0c03077
  Functional external parameters        .... 6
    Parameter  0 _c1        =  6.670000e-01 : c1 parameter        
    Parameter  1 _c2        =  8.000000e-01 : c2 parameter        
    Parameter  2 _d         =  1.240000e+00 : d parameter         
    Parameter  3 _k1        =  6.500000e-02 : k1 parameter        
    Parameter  4 _eta       =  1.000000e-03 : eta parameter       
    Parameter  5 _dp2       =  3.610000e-01 : dp2 parameter       
  Functional kind                       .... Correlation
  Functional name                       .... Re-regularized SCAN correlation by Furness et al
  Functional family                     .... MGGA
  Functional refs                              
    [ 0] J. W. Furness, A. D. Kaplan, J. Ning, J. P. Perdew, and J. Sun.,  J. Phys. Chem. Lett. 11, 8208-8215 (2020), doi: 10.1021/acs.jpclett.0c02405
    [ 1] J. W. Furness, A. D. Kaplan, J. Ning, J. P. Perdew, and J. Sun.,  J. Phys. Chem. Lett. 11, 9248-9248 (2020), doi: 10.1021/acs.jpclett.0c03077
  Functional external parameters        .... 1
    Parameter  0 _eta       =  1.000000e-03 : Regularization parameter
 Gradients option       PostSCFGGA      .... off
 RI-approximation to the Coulomb term is turned on
   Number of AuxJ basis functions       .... 426


General Settings:
 Integral files         IntName         .... sp_solv
 Hartree-Fock type      HFTyp           .... RHF
 Total Charge           Charge          ....    0
 Multiplicity           Mult            ....    1
 Number of Electrons    NEL             ....   50
 Basis Dimension        Dim             ....  179
 Nuclear Repulsion      ENuc            ....    258.8254031411 Eh

Convergence Acceleration:
 AO-DIIS                CNVDIIS         .... on
   Start iteration      DIISMaxIt       ....    12
   Startup error        DIISStart       ....  0.200000
   # of expansion vecs  DIISMaxEq       ....     5
   Bias factor          DIISBfac        ....   1.050
   Max. coefficient     DIISMaxC        ....  10.000
 MO-DIIS                CNVKDIIS        .... off
 Trust-Rad. Augm. Hess. CNVTRAH         .... auto
   Auto Start mean grad. ratio tolernc. ....  1.125000
   Auto Start start iteration           ....     1
   Auto Start num. interpolation iter.  ....    10
   Max. Number of Micro iterations      ....    24
   Max. Number of Macro iterations      .... Maxiter - #DIIS iter
   Number of Davidson start vectors     ....     2
   Converg. threshold    (grad. norm)   ....   3.330e-04
   Grad. Scal. Fac. for Micro threshold ....   0.100
   Minimum threshold for Micro iter.    ....   1.000e-02
   NR start threshold (gradient norm)   ....   1.000e-04
   Initial trust radius                 ....   0.400
   Minimum AH scaling param. (alpha)    ....   1.000
   Maximum AH scaling param. (alpha)    .... 1000.000
   Quad. conv. algorithm                .... NR
   White noise on init. David. guess    .... on
   Maximum white noise                  ....   0.010
   Pseudo random numbers                .... off
   Inactive MOs                         .... canonical
   Orbital update algorithm             .... Taylor
   Preconditioner                       .... Diag
   Full preconditioner red. dimension   ....   250
   COSX micro iterations for RIJONX calc.... off
 SOSCF                  CNVSOSCF        .... on
   Start iteration      SOSCFMaxIt      ....   150
   Startup grad/error   SOSCFStart      ....  0.003300
   Hessian update       SOSCFHessUp     .... L-BFGS
 Level Shifting         CNVShift        .... on
   Level shift para.    LevelShift      ....    0.2500
   Turn off err/grad.   ShiftErr        ....    0.0010
 Zerner damping         CNVZerner       .... off
 Static damping         CNVDamp         .... on
   Fraction old density DampFac         ....    0.7000
   Max. Damping (<1)    DampMax         ....    0.9800
   Min. Damping (>=0)   DampMin         ....    0.0000
   Turn off err/grad.   DampErr         ....    0.1000

SCF Procedure:
 Maximum # iterations   MaxIter         ....   125
 SCF integral mode      SCFMode         .... Direct
   Integral package                     .... SHARK and LIBINT hybrid scheme
 Reset frequency        DirectResetFreq ....    20
 Integral Threshold     Thresh          ....  1.000e-10 Eh
 Primitive CutOff       TCut            ....  1.000e-11 Eh

Convergence Tolerance:
 Convergence Check Mode ConvCheckMode   .... Total+1el-Energy
 Convergence forced     ConvForced      .... 0
 Energy Change          TolE            ....  1.000e-06 Eh
 1-El. energy change                    ....  1.000e-03 Eh
 Orbital Gradient       TolG            ....  3.330e-04
 Orbital Rotation angle TolX            ....  3.330e-04
 DIIS Error             TolErr          ....  1.000e-06

---------------------
INITIAL GUESS: MOREAD
---------------------
Guess MOs are being read from file: sp_solv.ges
Input Geometry matches current geometry (good)
Atom 0: N(Shells)= 9 and 6 - projection required
Input basis set needs projection
NBasis(read)= 108
NBasis(calc)= 179
Basis set overlap was calculated
Using GuessMode=FMatrix for the initial guess
C*T matrix was formed
Effective Fockian was calculated
Effective Fockian was diagonalized
Initial density was built
                      ------------------
                      INITIAL GUESS DONE (   0.1 sec)
                      ------------------
             **** ENERGY FILE WAS UPDATED (sp_solv.en.tmp) ****
Finished Guess after   0.3 sec
Maximum memory used throughout the entire GUESS-calculation: 12.2 MB

-------------------------------------------------------------------------------------------
                                      ORCA LEAN-SCF
                              memory conserving SCF solver
-------------------------------------------------------------------------------------------

--------------------
CPCM SOLVATION MODEL
--------------------
CPCM parameters:
  Epsilon                                         ...      78.3550
  Refrac                                          ...       1.3328
  Rsolv                                           ...       1.3000
  Surface type                                    ... GAUSSIAN VDW
  Discretization scheme                           ... Constant charge density
    Threshold for H atoms                         ...       5.0000 (charges/Ang^2)
    Threshold for non-H atoms                     ...       5.0000 (charges/Ang^2)
  Epsilon function type                           ...         CPCM
Solvent:                                          ... WATER
SMD-CDS solvent descriptors:
  Soln                                            ...       1.3328
  Soln25                                          ...       1.3323
  Sola                                            ...       0.0000
  Solb                                            ...       0.0000
  Solg                                            ...       0.0000
  Solc                                            ...       0.0000
  Solh                                            ...       0.0000
Radii:
  Scheme                                          ... Element-dependent radii
  Radius for C  used is    3.4960 Bohr (=   1.8500 Ang.)
  Radius for H  used is    2.2677 Bohr (=   1.2000 Ang.)
  Radius for O  used is    2.8724 Bohr (=   1.5200 Ang.)
Calculating surface                               ...        done! (  0.0s)
Cavity surface points                             ...         1308
Cavity Volume                                     ...     733.3128
Cavity Surface-area                               ...     492.1814
Calculating surface distance matrix               ...        done! (  0.0s)
Performing Cholesky decomposition & store         ...        done! (  0.1s)
Overall time for CPCM initialization              ...                 0.1s

----------------------------------------D-I-I-S--------------------------------------------
Iteration    Energy (Eh)           Delta-E    RMSDP     MaxDP     DIISErr   Damp  Time(sec)
-------------------------------------------------------------------------------------------
               ***  Starting incremental Fock matrix formation  ***
    1    -272.7557981634564044     0.00e+00  3.71e-03  1.12e-01  6.27e-01  0.700   2.7
    2    -272.8025660632058020    -4.68e-02  3.05e-03  7.39e-02  4.42e-01  0.700   2.5
    3    -272.8358131086976641    -3.32e-02  2.26e-03  5.41e-02  3.10e-01  0.700   2.5
    4    -272.8592168218116853    -2.34e-02  1.62e-03  3.85e-02  2.17e-01  0.700   2.3
                               ***Turning on AO-DIIS***
    5    -272.8756644804948905    -1.64e-02  1.18e-03  2.77e-02  1.52e-01  0.700   2.3
    6    -272.8872107479299416    -1.15e-02  8.44e-04  1.96e-02  1.06e-01  0.700   2.3
    7    -272.8953155200632068    -8.10e-03  5.97e-04  1.38e-02  7.43e-02  0.700   2.3
    8    -272.9009993200865551    -5.68e-03  1.40e-03  3.22e-02  5.21e-02  0.000   2.4
                              *** Initializing SOSCF ***
---------------------------------------S-O-S-C-F--------------------------------------
Iteration    Energy (Eh)           Delta-E    RMSDP     MaxDP     MaxGrad    Time(sec)
--------------------------------------------------------------------------------------
    9    -272.9142986240428286    -1.33e-02  1.51e-05  4.35e-04  1.27e-04     2.6
               *** Restarting incremental Fock matrix formation ***
   10    -272.9142987854314129    -1.61e-07  7.18e-06  1.31e-04  2.47e-05     2.5
                  *** Gradient check signals convergence ***

               *****************************************************
               *                     SUCCESS                       *
               *           SCF CONVERGED AFTER  10 CYCLES          *
               *****************************************************


SMD CDS free energy correction energy :                 3.50218     Kcal/mol
Total Energy after SMD CDS correction =              -272.908717700 Eh
             **** ENERGY FILE WAS UPDATED (sp_solv.en.tmp) ****

----------------
TOTAL SCF ENERGY
----------------

Total Energy       :       -272.90871770005640 Eh           -7426.22375 eV

Components:
Nuclear Repulsion  :        258.82540314106285 Eh            7042.99728 eV
Electronic Energy  :       -531.72632119997127 Eh          -14469.00879 eV
One Electron Energy:       -881.66648585463008 Eh          -23991.36478 eV
Two Electron Energy:        349.94016465465882 Eh            9522.35599 eV
CPCM Dielectric    :         -0.01338072652298 Eh              -0.36411 eV
SMD CDS (Gcds)     :          0.00558108537500 Eh               0.15187 eV

Virial components:
Potential Energy   :       -544.58884789830017 Eh          -14819.01594 eV
Kinetic Energy     :        271.68013019824383 Eh            7392.79218 eV
Virial Ratio       :          2.00452218386717

DFT components:
N(Alpha)           :       24.999982084801 electrons
N(Beta)            :       24.999982084801 electrons
N(Total)           :       49.999964169601 electrons
E(X)               :      -38.586090658544 Eh       
E(C)               :       -1.562529906675 Eh       
E(XC)              :      -40.148620565220 Eh       

CPCM Solvation Model Properties:
Surface-charge          :         -0.04625411645288
Corrected charge        :          0.00000000000000
Outlying charge corr.   :          0.00017655392177 Eh               0.00480 eV
Free-energy (cav+disp)  :          0.00558108537500 Eh               0.15187 eV

---------------
SCF CONVERGENCE
---------------

  Last Energy change         ...    1.6139e-07  Tolerance :   1.0000e-06
  Last MAX-Density change    ...    1.3113e-04  Tolerance :   1.0000e-05
  Last RMS-Density change    ...    7.1795e-06  Tolerance :   1.0000e-06
  Last DIIS Error            ...    1.2659e-04  Tolerance :   1.0000e-06
  Last Orbital Gradient      ...    2.4686e-05  Tolerance :   3.3300e-04
  Last Orbital Rotation      ...    5.4217e-05  Tolerance :   3.3300e-04


----------------
ORBITAL ENERGIES
----------------

  NO   OCC          E(Eh)            E(eV) 
   0   2.0000     -18.948539      -515.6160 
   1   2.0000     -10.064686      -273.8740 
   2   2.0000     -10.024900      -272.7914 
   3   2.0000     -10.017394      -272.5871 
   4   2.0000     -10.007647      -272.3219 
   5   2.0000     -10.006091      -272.2796 
   6   2.0000      -0.983739       -26.7689 
   7   2.0000      -0.768424       -20.9099 
   8   2.0000      -0.691599       -18.8194 
   9   2.0000      -0.634618       -17.2688 
  10   2.0000      -0.582587       -15.8530 
  11   2.0000      -0.519732       -14.1426 
  12   2.0000      -0.476815       -12.9748 
  13   2.0000      -0.432468       -11.7681 
  14   2.0000      -0.411935       -11.2093 
  15   2.0000      -0.383602       -10.4383 
  16   2.0000      -0.375666       -10.2224 
  17   2.0000      -0.366318        -9.9680 
  18   2.0000      -0.336043        -9.1442 
  19   2.0000      -0.327274        -8.9056 
  20   2.0000      -0.308257        -8.3881 
  21   2.0000      -0.290518        -7.9054 
  22   2.0000      -0.284671        -7.7463 
  23   2.0000      -0.274310        -7.4644 
  24   2.0000      -0.236731        -6.4418 
  25   0.0000       0.076049         2.0694 
  26   0.0000       0.097775         2.6606 
  27   0.0000       0.118220         3.2169 
  28   0.0000       0.132360         3.6017 
  29   0.0000       0.138007         3.7554 
  30   0.0000       0.150922         4.1068 
  31   0.0000       0.154447         4.2027 
  32   0.0000       0.157432         4.2840 
  33   0.0000       0.165089         4.4923 
  34   0.0000       0.182486         4.9657 
  35   0.0000       0.187898         5.1130 
*Only the first 10 virtual orbitals were printed.

                    ********************************
                    * MULLIKEN POPULATION ANALYSIS *
                    ********************************

-----------------------
MULLIKEN ATOMIC CHARGES
-----------------------
   0 C :   -0.533370
   1 C :   -0.263703
   2 C :   -0.000570
   3 H :    0.154520
   4 C :   -0.543603
   5 C :   -0.186738
   6 O :   -0.516070
   7 H :    0.157195
   8 H :    0.157894
   9 H :    0.155197
  10 H :    0.150845
  11 H :    0.152004
  12 H :    0.162043
  13 H :    0.163134
  14 H :    0.159557
  15 H :    0.140745
  16 H :    0.146615
  17 H :    0.344304
Sum of atomic charges:   -0.0000000

--------------------------------
MULLIKEN REDUCED ORBITAL CHARGES
--------------------------------
  0 C s       :     3.357385  s :     3.357385
      pz      :     1.077450  p :     3.148901
      px      :     1.097529
      py      :     0.973923
      dz2     :     0.007810  d :     0.027083
      dxz     :     0.002662
      dyz     :     0.003806
      dx2y2   :     0.005848
      dxy     :     0.006957

  1 C s       :     3.212661  s :     3.212661
      pz      :     1.049935  p :     3.014310
      px      :     0.988709
      py      :     0.975665
      dz2     :     0.010272  d :     0.036733
      dxz     :     0.004532
      dyz     :     0.004206
      dx2y2   :     0.007354
      dxy     :     0.010369

  2 C s       :     3.070153  s :     3.070153
      pz      :     1.054623  p :     2.885302
      px      :     0.934225
      py      :     0.896453
      dz2     :     0.010943  d :     0.045115
      dxz     :     0.006813
      dyz     :     0.005888
      dx2y2   :     0.010922
      dxy     :     0.010549

  3 H s       :     0.827932  s :     0.827932
      pz      :     0.010799  p :     0.017547
      px      :     0.003189
      py      :     0.003559

  4 C s       :     3.356411  s :     3.356411
      pz      :     1.094470  p :     3.160263
      px      :     1.116602
      py      :     0.949191
      dz2     :     0.006317  d :     0.026929
      dxz     :     0.003132
      dyz     :     0.004986
      dx2y2   :     0.006432
      dxy     :     0.006062

  5 C s       :     3.326659  s :     3.326659
      pz      :     0.962384  p :     2.801777
      px      :     0.784942
      py      :     1.054452
      dz2     :     0.014628  d :     0.058301
      dxz     :     0.013438
      dyz     :     0.004240
      dx2y2   :     0.013989
      dxy     :     0.012006

  6 O s       :     3.761437  s :     3.761437
      pz      :     1.708154  p :     4.732916
      px      :     1.234078
      py      :     1.790684
      dz2     :     0.005064  d :     0.021717
      dxz     :     0.005134
      dyz     :     0.003600
      dx2y2   :     0.002070
      dxy     :     0.005849

  7 H s       :     0.824440  s :     0.824440
      pz      :     0.004716  p :     0.018365
      px      :     0.009709
      py      :     0.003941

  8 H s       :     0.823821  s :     0.823821
      pz      :     0.010978  p :     0.018285
      px      :     0.003709
      py      :     0.003598

  9 H s       :     0.826306  s :     0.826306
      pz      :     0.004370  p :     0.018497
      px      :     0.006638
      py      :     0.007490

 10 H s       :     0.831248  s :     0.831248
      pz      :     0.010971  p :     0.017906
      px      :     0.003478
      py      :     0.003457

 11 H s       :     0.830017  s :     0.830017
      pz      :     0.004030  p :     0.017978
      px      :     0.007029
      py      :     0.006919

 12 H s       :     0.819640  s :     0.819640
      pz      :     0.005391  p :     0.018317
      px      :     0.007202
      py      :     0.005723

 13 H s       :     0.818441  s :     0.818441
      pz      :     0.004548  p :     0.018425
      px      :     0.009762
      py      :     0.004115

 14 H s       :     0.822228  s :     0.822228
      pz      :     0.010527  p :     0.018215
      px      :     0.003698
      py      :     0.003990

 15 H s       :     0.841778  s :     0.841778
      pz      :     0.003076  p :     0.017477
      px      :     0.003121
      py      :     0.011279

 16 H s       :     0.836251  s :     0.836251
      pz      :     0.010794  p :     0.017134
      px      :     0.002496
      py      :     0.003844

 17 H s       :     0.612418  s :     0.612418
      pz      :     0.012179  p :     0.043279
      px      :     0.016724
      py      :     0.014376


------------------------
MULLIKEN OVERLAP CHARGES
------------------------
B(  0-C ,  1-C ) :   0.4090 B(  0-C ,  2-C ) :  -0.1730 B(  0-C ,  7-H ) :   0.8034 
B(  0-C ,  8-H ) :   0.8820 B(  0-C ,  9-H ) :   0.8427 B(  0-C , 11-H ) :  -0.0638 
B(  1-C ,  2-C ) :   0.4044 B(  1-C ,  3-H ) :  -0.0886 B(  1-C ,  4-C ) :  -0.1557 
B(  1-C ,  5-C ) :  -0.1207 B(  1-C ,  7-H ) :  -0.0760 B(  1-C ,  8-H ) :  -0.1180 
B(  1-C ,  9-H ) :  -0.0766 B(  1-C , 10-H ) :   0.8200 B(  1-C , 11-H ) :   0.8498 
B(  2-C ,  3-H ) :   0.8828 B(  2-C ,  4-C ) :   0.3901 B(  2-C ,  5-C ) :   0.3896 
B(  2-C ,  6-O ) :  -0.1333 B(  2-C , 10-H ) :  -0.0871 B(  2-C , 11-H ) :  -0.1186 
B(  2-C , 12-H ) :  -0.0828 B(  2-C , 13-H ) :  -0.0928 B(  2-C , 14-H ) :  -0.0859 
B(  2-C , 15-H ) :  -0.1137 B(  2-C , 16-H ) :  -0.0755 B(  3-H ,  4-C ) :  -0.0935 
B(  3-H ,  5-C ) :  -0.0584 B(  4-C ,  5-C ) :  -0.2027 B(  4-C , 12-H ) :   0.8223 
B(  4-C , 13-H ) :   0.8293 B(  4-C , 14-H ) :   0.8348 B(  5-C ,  6-O ) :   0.3806 
B(  5-C , 15-H ) :   0.8299 B(  5-C , 16-H ) :   0.8825 B(  5-C , 17-H ) :  -0.0697 
B(  6-O , 15-H ) :  -0.0986 B(  6-O , 16-H ) :  -0.1083 B(  6-O , 17-H ) :   0.6306 
B(  8-H ,  9-H ) :  -0.0527 B( 15-H , 16-H ) :  -0.0809 


                     *******************************
                     * LOEWDIN POPULATION ANALYSIS *
                     *******************************

----------------------
LOEWDIN ATOMIC CHARGES
----------------------
   0 C :   -0.431990
   1 C :   -0.307890
   2 C :   -0.219997
   3 H :    0.165006
   4 C :   -0.420180
   5 C :    0.014176
   6 O :   -0.667697
   7 H :    0.153335
   8 H :    0.153392
   9 H :    0.151478
  10 H :    0.159964
  11 H :    0.159259
  12 H :    0.156175
  13 H :    0.160648
  14 H :    0.158246
  15 H :    0.166323
  16 H :    0.165336
  17 H :    0.284416

-------------------------------
LOEWDIN REDUCED ORBITAL CHARGES
-------------------------------
  0 C s       :     2.972816  s :     2.972816
      pz      :     1.153220  p :     3.396069
      px      :     1.148363
      py      :     1.094485
      dz2     :     0.019151  d :     0.063106
      dxz     :     0.006445
      dyz     :     0.008064
      dx2y2   :     0.013474
      dxy     :     0.015972

  1 C s       :     2.934105  s :     2.934105
      pz      :     1.130442  p :     3.294249
      px      :     1.077513
      py      :     1.086295
      dz2     :     0.023593  d :     0.079536
      dxz     :     0.009639
      dyz     :     0.008291
      dx2y2   :     0.015338
      dxy     :     0.022674

  2 C s       :     2.909354  s :     2.909354
      pz      :     1.114542  p :     3.218317
      px      :     1.042260
      py      :     1.061515
      dz2     :     0.024205  d :     0.092326
      dxz     :     0.014009
      dyz     :     0.011134
      dx2y2   :     0.022877
      dxy     :     0.020102

  3 H s       :     0.791820  s :     0.791820
      pz      :     0.026785  p :     0.043175
      px      :     0.007576
      py      :     0.008813

  4 C s       :     2.970218  s :     2.970218
      pz      :     1.157053  p :     3.386948
      px      :     1.154808
      py      :     1.075088
      dz2     :     0.015573  d :     0.063014
      dxz     :     0.007951
      dyz     :     0.010623
      dx2y2   :     0.015406
      dxy     :     0.013462

  5 C s       :     2.871976  s :     2.871976
      pz      :     1.024625  p :     2.983327
      px      :     0.882729
      py      :     1.075973
      dz2     :     0.034170  d :     0.130521
      dxz     :     0.030076
      dyz     :     0.008596
      dx2y2   :     0.031013
      dxy     :     0.026666

  6 O s       :     3.514297  s :     3.514297
      pz      :     1.733278  p :     4.868726
      px      :     1.348472
      py      :     1.786977
      dz2     :     0.059494  d :     0.284674
      dxz     :     0.069768
      dyz     :     0.019776
      dx2y2   :     0.063262
      dxy     :     0.072373

  7 H s       :     0.802741  s :     0.802741
      pz      :     0.010938  p :     0.043923
      px      :     0.023981
      py      :     0.009004

  8 H s       :     0.802888  s :     0.802888
      pz      :     0.027430  p :     0.043720
      px      :     0.008216
      py      :     0.008074

  9 H s       :     0.804138  s :     0.804138
      pz      :     0.010095  p :     0.044385
      px      :     0.016169
      py      :     0.018121

 10 H s       :     0.796445  s :     0.796445
      pz      :     0.027328  p :     0.043592
      px      :     0.008153
      py      :     0.008111

 11 H s       :     0.797275  s :     0.797275
      pz      :     0.009593  p :     0.043466
      px      :     0.017052
      py      :     0.016821

 12 H s       :     0.799738  s :     0.799738
      pz      :     0.012773  p :     0.044088
      px      :     0.017651
      py      :     0.013664

 13 H s       :     0.794642  s :     0.794642
      pz      :     0.010599  p :     0.044710
      px      :     0.024714
      py      :     0.009396

 14 H s       :     0.797807  s :     0.797807
      pz      :     0.026479  p :     0.043947
      px      :     0.008284
      py      :     0.009184

 15 H s       :     0.792515  s :     0.792515
      pz      :     0.007056  p :     0.041162
      px      :     0.007380
      py      :     0.026726

 16 H s       :     0.794058  s :     0.794058
      pz      :     0.025199  p :     0.040606
      px      :     0.006333
      py      :     0.009074

 17 H s       :     0.591899  s :     0.591899
      pz      :     0.034788  p :     0.123685
      px      :     0.048103
      py      :     0.040794


---------------------------------
LOEWDIN BOND ORDERS (THRESH 0.050000)
---------------------------------
B(  0-C ,  1-C ) :   1.1404 B(  0-C ,  2-C ) :   0.0680 B(  0-C ,  7-H ) :   0.9286 
B(  0-C ,  8-H ) :   0.9289 B(  0-C ,  9-H ) :   0.9270 B(  1-C ,  2-C ) :   1.0676 
B(  1-C ,  4-C ) :   0.0761 B(  1-C ,  5-C ) :   0.0730 B(  1-C , 10-H ) :   0.8874 
B(  1-C , 11-H ) :   0.8855 B(  2-C ,  3-H ) :   0.8513 B(  2-C ,  4-C ) :   1.1042 
B(  2-C ,  5-C ) :   1.0037 B(  2-C ,  6-O ) :   0.1749 B(  4-C ,  5-C ) :   0.0667 
B(  4-C , 12-H ) :   0.9239 B(  4-C , 13-H ) :   0.9133 B(  4-C , 14-H ) :   0.9201 
B(  5-C ,  6-O ) :   1.4232 B(  5-C , 15-H ) :   0.8261 B(  5-C , 16-H ) :   0.8287 
B(  6-O , 15-H ) :   0.1041 B(  6-O , 16-H ) :   0.1025 B(  6-O , 17-H ) :   0.9618 


------------------------------------------
LOEWDIN REDUCED ORBITAL POPULATIONS PER MO
-------------------------------------------
THRESHOLD FOR PRINTING IS 0.1%%
                      0         1         2         3         4         5   
                 -18.94854 -10.06469 -10.02490 -10.01739 -10.00765 -10.00609
                   2.00000   2.00000   2.00000   2.00000   2.00000   2.00000
                  --------  --------  --------  --------  --------  --------
 0 C  s               0.0       0.0       0.0       0.0      99.7       0.0
 1 C  s               0.0       0.0       0.0      99.7       0.0       0.0
 2 C  s               0.0       0.0      99.6       0.0       0.0       0.0
 4 C  s               0.0       0.0       0.0       0.0       0.0      99.7
 5 C  s               0.0      99.4       0.0       0.0       0.0       0.0
 6 O  s              99.9       0.0       0.0       0.0       0.0       0.0
 6 O  dxz             0.0       0.2       0.0       0.0       0.0       0.0

                      6         7         8         9        10        11   
                  -0.98374  -0.76842  -0.69160  -0.63462  -0.58259  -0.51973
                   2.00000   2.00000   2.00000   2.00000   2.00000   2.00000
                  --------  --------  --------  --------  --------  --------
 0 C  s               0.0       6.9      24.3       0.3      15.3       0.7
 0 C  pz              0.0       0.1       0.1       0.0       0.4       1.7
 0 C  px              0.0       0.5       0.0       0.1       0.6       0.0
 0 C  py              0.0       1.7       0.6       0.0       5.6       1.5
 1 C  s               0.1      18.1      10.4       0.3      10.7       4.1
 1 C  pz              0.0       0.6       0.0       0.0       0.3       6.0
 1 C  px              0.1       1.6       3.1       0.5       0.9       2.6
 1 C  py              0.0       0.0       4.7       0.4       6.3       0.5
 1 C  dx2y2           0.0       0.0       0.1       0.0       0.1       0.0
 2 C  s               0.8      24.3       3.8       0.2       2.2      10.6
 2 C  pz              0.1       0.7       0.0       0.4       0.1      10.2
 2 C  px              1.3       0.5       4.7       2.5       6.7       0.1
 2 C  py              0.2       0.0       3.0      11.1       0.7       0.5
 2 C  dxz             0.0       0.0       0.0       0.1       0.1       0.0
 2 C  dx2y2           0.0       0.0       0.1       0.1       0.1       0.0
 2 C  dxy             0.0       0.0       0.0       0.1       0.0       0.0
 3 H  s               0.0       3.1       0.6       0.1       0.5      10.1
 3 H  pz              0.0       0.3       0.1       0.0       0.0       0.6
 4 C  s               0.1       9.7      10.9      18.3       5.4       2.2
 4 C  pz              0.0       0.0       0.0       0.0       0.0       2.1
 4 C  px              0.1       0.2       0.1       0.1       1.0       0.0
 4 C  py              0.2       2.8       0.3       1.0       1.5       4.8
 5 C  s               9.3       5.1       2.6      18.1       2.1       3.2
 5 C  pz              2.1       0.1       0.0       0.3       0.1       7.9
 5 C  px              6.2       4.6       0.5       1.0       0.3       1.7
 5 C  py              0.3       0.8       0.7       0.7       0.0       1.4
 5 C  dxz             0.4       0.1       0.0       0.0       0.0       0.0
 5 C  dx2y2           0.3       0.0       0.0       0.0       0.0       0.0
 6 O  s              61.4       1.4       0.7       2.4       0.4       0.6
 6 O  pz              1.4       0.1       0.1       0.8       0.2       2.6
 6 O  px              0.2       1.6       1.7      10.3       3.4       0.5
 6 O  py              0.7       0.1       0.1       0.1       0.1       0.3
 6 O  dz2             0.0       0.1       0.0       0.0       0.0       0.2
 6 O  dxz             0.1       0.2       0.2       1.0       0.2       0.6
 6 O  dx2y2           0.1       0.3       0.1       0.4       0.0       0.1
 6 O  dxy             0.0       0.0       0.0       0.5       0.0       0.2
 7 H  s               0.0       0.9       4.6       0.1       5.6       0.1
 7 H  px              0.0       0.1       0.3       0.0       0.3       0.0
 8 H  s               0.0       0.9       4.3       0.1       5.2       1.2
 8 H  pz              0.0       0.1       0.4       0.0       0.4       0.1
 9 H  s               0.0       0.9       4.3       0.0       5.7       0.5
 9 H  px              0.0       0.0       0.1       0.0       0.2       0.0
 9 H  py              0.0       0.0       0.2       0.0       0.2       0.0
10 H  s               0.0       2.3       1.8       0.0       3.5       4.6
10 H  pz              0.0       0.2       0.2       0.0       0.3       0.3
11 H  s               0.0       2.3       1.8       0.3       3.8       2.5
11 H  px              0.0       0.1       0.1       0.0       0.2       0.0
11 H  py              0.0       0.1       0.1       0.0       0.1       0.1
12 H  s               0.0       1.2       1.9       5.1       1.4       1.2
12 H  pz              0.0       0.0       0.0       0.1       0.0       0.0
12 H  px              0.0       0.0       0.1       0.2       0.1       0.0
12 H  py              0.0       0.0       0.0       0.1       0.0       0.0
13 H  s               0.0       1.2       2.2       4.2       2.6       0.8
13 H  px              0.0       0.1       0.2       0.3       0.2       0.0
14 H  s               0.0       1.3       1.9       4.3       1.6       2.8
14 H  pz              0.0       0.1       0.2       0.4       0.1       0.2
15 H  s               0.7       0.7       0.3       5.3       0.7       1.9
15 H  py              0.1       0.1       0.0       0.5       0.0       0.1
16 H  s               0.6       0.7       0.5       4.3       0.8       4.6
16 H  pz              0.1       0.1       0.0       0.3       0.1       0.2
17 H  s              10.4       0.6       0.6       2.3       0.8       0.0
17 H  pz              0.3       0.0       0.0       0.1       0.0       0.0
17 H  px              1.5       0.1       0.0       0.1       0.0       0.0
17 H  py              0.5       0.0       0.0       0.2       0.0       0.0

                     12        13        14        15        16        17   
                  -0.47682  -0.43247  -0.41194  -0.38360  -0.37567  -0.36632
                   2.00000   2.00000   2.00000   2.00000   2.00000   2.00000
                  --------  --------  --------  --------  --------  --------
 0 C  s               0.1       0.2       0.1       0.0       0.1       0.0
 0 C  pz              0.2       1.8       7.5       6.0      11.3       2.5
 0 C  px              0.7       0.2       7.2       6.7       6.5      16.6
 0 C  py              1.5       1.7       0.5       3.6      11.2       0.5
 0 C  dx2y2           0.0       0.0       0.0       0.0       0.1       0.0
 1 C  s               1.3       0.1       0.1       0.1       0.6       0.2
 1 C  pz              0.2       6.6       8.4       1.4       7.3       0.2
 1 C  px              4.6       1.6       3.4       9.1       0.1       2.5
 1 C  py              0.4       0.3       5.8       1.2       3.9       3.1
 1 C  dyz             0.0       0.0       0.0       0.0       0.1       0.0
 2 C  s               0.8       0.6       0.2       0.0       0.7       0.0
 2 C  pz              1.0       9.9       0.2       5.8       0.1       2.7
 2 C  px              0.4       3.4       0.8       6.7       0.1       2.1
 2 C  py              0.5       0.6       4.7       0.0       6.1       0.3
 2 C  dxy             0.0       0.0       0.0       0.0       0.1       0.1
 3 H  s               0.0       1.9       0.1       2.3       0.1       0.7
 4 C  s               0.0       0.4       0.3       0.0       0.1       0.0
 4 C  pz              0.2       4.0       0.1      12.1       0.9      13.8
 4 C  px              0.3       3.0       1.3      11.7      12.9       0.2
 4 C  py              0.0       5.6       3.7       0.1       4.3       0.3
 4 C  dx2y2           0.0       0.1       0.0       0.0       0.1       0.0
 5 C  s               0.8       0.4       0.2       0.3       0.0       0.1
 5 C  pz              9.8       1.8       9.3       0.6       0.5       4.4
 5 C  px              5.5       1.4       4.0       1.3       0.7       6.1
 5 C  py              4.4      21.1       4.5       0.0       1.3       2.1
 5 C  dxz             0.4       0.0       0.0       0.2       0.0       0.0
 5 C  dyz             0.1       0.0       0.0       0.0       0.0       0.0
 5 C  dxy             0.1       0.1       0.0       0.0       0.0       0.1
 6 O  s               1.0       0.5       0.6       0.4       0.2       0.2
 6 O  pz              1.2       0.1       9.5       0.0       0.3      10.8
 6 O  px             37.0       1.5       0.1       4.8       0.6       0.6
 6 O  py              5.4       8.7       0.3       0.0       4.2       1.4
 6 O  dz2             0.0       0.0       0.5       0.1       0.0       0.5
 6 O  dxz             0.1       0.0       0.2       0.0       0.0       0.0
 6 O  dyz             0.2       0.3       0.0       0.0       0.0       0.0
 6 O  dxy             0.1       0.9       0.2       0.2       0.1       0.1
 7 H  s               0.0       0.6       0.8       3.1       8.3       4.2
 7 H  pz              0.0       0.0       0.1       0.0       0.0       0.1
 7 H  px              0.0       0.0       0.0       0.1       0.2       0.0
 8 H  s               0.1       0.2       3.4       2.6       3.4       1.3
 8 H  pz              0.0       0.0       0.1       0.1       0.1       0.0
 8 H  px              0.0       0.0       0.0       0.1       0.1       0.1
 8 H  py              0.0       0.0       0.0       0.0       0.1       0.0
 9 H  s               0.7       0.6       2.7       2.3       1.9       5.1
 9 H  pz              0.0       0.0       0.0       0.1       0.0       0.0
 9 H  px              0.0       0.0       0.0       0.0       0.2       0.0
 9 H  py              0.0       0.0       0.1       0.0       0.0       0.2
10 H  s               0.5       1.8       3.6       0.5       1.6       0.4
10 H  pz              0.0       0.1       0.1       0.0       0.0       0.0
11 H  s               2.1       1.8       3.7       0.6       0.0       1.7
12 H  s               0.0       5.3       0.1       0.2       1.1       2.7
12 H  pz              0.0       0.0       0.0       0.1       0.0       0.0
12 H  px              0.0       0.1       0.0       0.0       0.0       0.1
12 H  py              0.0       0.0       0.0       0.0       0.1       0.0
13 H  s               0.2       0.0       1.4       7.3       5.8       0.5
13 H  px              0.0       0.0       0.0       0.2       0.1       0.0
14 H  s               0.1       0.1       0.6       5.0       0.8       5.4
14 H  pz              0.0       0.0       0.0       0.1       0.0       0.1
15 H  s               3.2       8.2       2.1       0.2       0.3       2.1
15 H  py              0.1       0.3       0.0       0.0       0.0       0.1
16 H  s               2.7       1.0       6.3       0.5       0.4       2.3
16 H  pz              0.1       0.0       0.2       0.0       0.0       0.1
17 H  s              10.4       0.0       0.1       1.0       0.0       0.0
17 H  pz              0.2       0.0       0.1       0.0       0.0       0.2
17 H  px              0.1       0.0       0.0       0.0       0.0       0.0
17 H  py              0.1       0.1       0.0       0.0       0.0       0.0

                     18        19        20        21        22        23   
                  -0.33604  -0.32727  -0.30826  -0.29052  -0.28467  -0.27431
                   2.00000   2.00000   2.00000   2.00000   2.00000   2.00000
                  --------  --------  --------  --------  --------  --------
 0 C  s               0.0       0.2       0.0       0.7       0.1       0.0
 0 C  pz              0.5      10.0      11.9       1.7       1.6       0.3
 0 C  px              0.9       2.7       4.7       0.7       8.1       1.1
 0 C  py              0.1       9.4       2.3       9.7       2.6       1.7
 0 C  dz2             0.0       0.1       0.4       0.1       0.1       0.0
 0 C  dyz             0.0       0.0       0.1       0.0       0.1       0.0
 0 C  dx2y2           0.0       0.0       0.1       0.0       0.2       0.0
 0 C  dxy             0.0       0.2       0.2       0.0       0.1       0.1
 1 C  s               0.1       0.1       0.0       0.4       0.4       0.0
 1 C  pz              0.0       2.2       9.7       6.6       5.0       1.9
 1 C  px              0.0       0.1       5.3       0.0      14.8       3.4
 1 C  py              0.5      11.9       2.1       7.2       3.1       2.6
 1 C  dz2             0.0       0.1       0.3       0.4       0.1       0.2
 1 C  dxz             0.0       0.0       0.0       0.0       0.1       0.0
 1 C  dyz             0.0       0.0       0.1       0.0       0.1       0.0
 1 C  dx2y2           0.0       0.0       0.1       0.1       0.3       0.0
 1 C  dxy             0.0       0.2       0.1       0.3       0.1       0.3
 2 C  s               0.3       0.2       0.1       0.3       0.3       0.2
 2 C  pz              0.7       1.0       1.8      11.4       4.0       5.6
 2 C  px              0.0       0.1       0.3       0.0      15.0       7.3
 2 C  py              1.0       4.7       0.4       9.4       3.6       5.3
 2 C  dz2             0.0       0.0       0.0       0.7       0.0       0.2
 2 C  dxz             0.0       0.0       0.0       0.0       0.1       0.1
 2 C  dyz             0.1       0.0       0.1       0.1       0.1       0.1
 2 C  dx2y2           0.0       0.0       0.0       0.1       0.2       0.1
 2 C  dxy             0.2       0.0       0.0       0.1       0.1       0.3
 3 H  s               0.6       1.7       0.4      12.2       1.5       3.4
 3 H  pz              0.0       0.1       0.0       0.1       0.0       0.0
 3 H  px              0.0       0.0       0.0       0.0       0.2       0.1
 4 C  s               0.1       0.0       0.0       0.9       0.1       0.0
 4 C  pz              8.1       5.9       4.4       3.8       1.2       1.2
 4 C  px             10.6       7.2       0.6       0.4       7.0       0.6
 4 C  py              4.2       4.4       0.5      11.5       3.1       3.5
 4 C  dz2             0.0       0.2       0.0       0.2       0.0       0.0
 4 C  dxz             0.1       0.1       0.0       0.0       0.1       0.0
 4 C  dyz             0.1       0.0       0.1       0.1       0.1       0.1
 4 C  dx2y2           0.0       0.0       0.0       0.1       0.2       0.0
 4 C  dxy             0.1       0.1       0.0       0.0       0.2       0.1
 5 C  s               0.6       0.0       0.2       0.1       0.1       0.9
 5 C  pz              2.3       0.0       1.7       0.1       0.0       7.5
 5 C  px              5.2       0.0       0.1       0.1       0.3       4.9
 5 C  py              0.3       2.3       0.7       0.5       0.4       6.7
 5 C  dz2             0.1       0.0       0.1       0.0       0.1       0.2
 5 C  dxz             0.0       0.0       0.0       0.1       0.0       0.1
 5 C  dx2y2           0.1       0.1       0.2       0.0       0.1       0.2
 5 C  dxy             0.0       0.0       0.1       0.1       0.0       0.2
 6 O  s               3.8       0.0       0.6       0.1       0.1       1.2
 6 O  pz             18.6       2.2       3.9       2.5       0.8       9.8
 6 O  px              0.9       0.0       0.3       0.3       0.8       0.6
 6 O  py             17.3       0.1       5.2       2.2       0.5       1.6
 6 O  dz2             0.1       0.1       0.1       0.1       0.0       0.7
 6 O  dxz             0.2       0.0       0.1       0.1       0.0       0.1
 6 O  dx2y2           0.0       0.2       0.0       0.1       0.4       0.9
 6 O  dxy             0.2       0.0       0.1       0.0       0.1       0.4
 7 H  s               0.2       3.1       0.1       0.2       8.0       0.3
 7 H  pz              0.0       0.0       0.1       0.0       0.0       0.0
 7 H  py              0.0       0.1       0.0       0.1       0.0       0.0
 8 H  s               0.3       5.4       8.5       1.2       1.4       0.5
 9 H  s               0.1       3.0       9.1       0.4       0.2       2.5
 9 H  pz              0.0       0.2       0.0       0.0       0.0       0.0
10 H  s               0.0       1.8       7.2       5.6       2.1       2.4
10 H  px              0.0       0.0       0.0       0.0       0.2       0.0
10 H  py              0.0       0.1       0.0       0.1       0.0       0.0
11 H  s               0.2       3.1       7.8       0.8       0.3       7.0
11 H  pz              0.0       0.1       0.0       0.1       0.1       0.0
11 H  px              0.0       0.1       0.1       0.0       0.1       0.0
12 H  s              12.1       1.8       2.3       0.0       0.3       3.1
12 H  pz              0.0       0.1       0.0       0.0       0.0       0.0
12 H  py              0.1       0.0       0.0       0.1       0.0       0.0
13 H  s               0.9       4.9       0.0       0.1       7.5       0.0
13 H  pz              0.1       0.0       0.0       0.0       0.0       0.0
13 H  py              0.0       0.1       0.0       0.1       0.0       0.0
14 H  s               2.9       5.1       1.9       4.2       0.9       0.9
15 H  s               0.1       1.8       1.2       0.4       0.0       1.7
15 H  pz              0.0       0.0       0.0       0.0       0.0       0.1
16 H  s               2.3       0.2       1.1       0.5       0.3       3.1
16 H  py              0.0       0.0       0.0       0.0       0.0       0.1
17 H  s               1.0       0.0       0.3       0.0       0.2       1.7
17 H  pz              0.1       0.0       0.0       0.0       0.0       0.0
17 H  px              0.2       0.0       0.1       0.0       0.0       0.1

                     24        25        26        27        28        29   
                  -0.23673   0.07605   0.09777   0.11822   0.13236   0.13801
                   2.00000   0.00000   0.00000   0.00000   0.00000   0.00000
                  --------  --------  --------  --------  --------  --------
 0 C  s               0.0       1.6      11.7      15.9       0.3       0.1
 0 C  pz              0.1       0.2       0.1       0.5       6.2       1.1
 0 C  px              0.1       0.3       0.1       0.7       3.9       2.5
 0 C  py              0.4       0.3       2.5       7.8       0.3       0.7
 0 C  dxz             0.0       0.0       0.0       0.0       0.4       0.2
 0 C  dyz             0.0       0.0       0.3       0.1       0.1       0.0
 0 C  dx2y2           0.0       0.0       0.4       0.1       0.4       0.1
 0 C  dxy             0.0       0.1       0.0       0.0       0.0       0.3
 1 C  s               0.0       3.2       9.4       1.9       0.5       1.0
 1 C  pz              0.2       0.0       1.0       1.2       4.2       5.0
 1 C  px              0.0       0.6       1.7       2.5       2.5       1.5
 1 C  py              0.2       0.9       0.6       9.6       1.0       0.9
 1 C  dz2             0.0       0.0       0.0       0.1       0.5       0.1
 1 C  dxz             0.0       0.0       0.1       0.1       0.1       0.3
 1 C  dyz             0.0       0.1       0.0       0.2       0.1       0.1
 1 C  dx2y2           0.0       0.1       0.0       0.7       0.0       0.0
 1 C  dxy             0.0       0.1       0.1       0.0       0.0       0.5
 2 C  s               0.0       0.2       4.5       1.9       3.3       0.4
 2 C  pz              0.0       0.0       2.3       0.3       6.7       4.0
 2 C  px              0.0       2.5       0.3       0.2       0.9       0.1
 2 C  py              0.8       0.0       0.3       1.4       3.4      10.2
 2 C  dz2             0.1       0.1       0.0       0.0       0.3       1.6
 2 C  dxz             0.0       0.3       0.1       0.0       0.0       0.0
 2 C  dyz             0.0       0.1       0.0       0.0       0.6       0.0
 2 C  dx2y2           0.1       0.5       0.0       0.0       0.4       1.0
 2 C  dxy             0.0       0.0       0.0       0.2       0.0       0.0
 3 H  s               0.4       0.2       1.1       0.1       3.6       3.8
 3 H  pz              0.0       0.0       0.6       0.2       1.5       1.3
 3 H  px              0.0       0.2       0.0       0.0       0.0       0.0
 3 H  py              0.0       0.0       0.1       0.0       0.9       0.6
 4 C  s               0.1       1.2       4.5      12.4       0.6      10.8
 4 C  pz              0.1       0.3       0.2       0.4       1.6       3.9
 4 C  px              0.4       0.9       0.1       1.2       0.2       1.4
 4 C  py              1.8       0.1       2.6       2.1       2.6      16.2
 4 C  dz2             0.0       0.1       0.0       0.1       0.1       0.1
 4 C  dxz             0.0       0.0       0.0       0.2       0.0       0.0
 4 C  dyz             0.0       0.0       0.2       0.0       0.6       0.0
 4 C  dx2y2           0.0       0.0       0.3       0.2       0.3       0.7
 5 C  s               0.0       3.0      10.3       1.1       0.3       0.3
 5 C  pz              2.5       4.3       3.4       0.4      24.6       3.0
 5 C  px              0.2      27.5       0.8       0.4       0.7       0.6
 5 C  py              5.7       1.0       1.8      11.2       1.5       3.3
 5 C  dz2             1.0       0.1       0.0       0.0       0.1       0.7
 5 C  dxz             0.1       1.3       0.1       0.0       0.1       0.3
 5 C  dyz             0.2       0.0       0.1       0.0       0.7       0.0
 5 C  dx2y2           0.2       1.1       0.0       0.0       0.0       0.2
 5 C  dxy             0.5       0.2       0.1       0.0       0.0       0.1
 6 O  s               0.0      11.0       0.2       0.0       0.2       0.1
 6 O  pz             21.5       2.8       0.3       0.3       0.1       0.4
 6 O  px              2.2       1.4       1.6       0.1       1.3       0.0
 6 O  py             41.1       1.8       0.3       0.7       0.1       0.1
 6 O  dz2             0.5       0.0       0.0       0.0       0.5       0.0
 6 O  dxz             0.1       0.8       1.5       0.1       1.1       0.2
 6 O  dyz             0.1       0.2       1.0       0.2       1.5       0.0
 6 O  dx2y2           0.0       0.2       0.9       0.0       0.5       0.2
 6 O  dxy             0.7       0.4       0.3       0.4       1.7       0.2
 7 H  s               0.0       0.1       2.0       0.6       2.8       2.2
 7 H  pz              0.0       0.0       0.2       0.1       0.3       0.1
 7 H  px              0.0       0.0       0.8       0.5       0.1       0.3
 7 H  py              0.0       0.0       0.0       0.0       0.0       0.1
 8 H  s               0.1       0.3       1.1       0.9       0.5       0.3
 8 H  pz              0.0       0.1       0.6       0.8       0.3       0.1
 8 H  px              0.0       0.0       0.0       0.0       0.4       0.2
 8 H  py              0.0       0.0       0.3       0.1       0.0       0.0
 9 H  s               0.2       0.4       2.4       2.3       1.0       2.0
 9 H  pz              0.0       0.1       0.3       0.0       0.2       0.2
 9 H  px              0.0       0.1       1.0       0.5       0.0       0.1
 9 H  py              0.0       0.0       0.1       1.4       0.2       0.2
10 H  s               0.0       0.3       2.3       0.1       2.4       0.3
10 H  pz              0.0       0.3       1.1       0.1       0.6       0.5
10 H  px              0.0       0.0       0.2       0.1       0.2       0.1
10 H  py              0.0       0.1       0.0       0.3       0.1       0.0
11 H  s               0.1       0.6       2.4       0.3       0.0       0.4
11 H  pz              0.0       0.1       0.4       0.0       0.4       0.1
11 H  px              0.0       0.3       0.4       0.0       0.0       0.1
11 H  py              0.0       0.0       0.6       0.8       0.1       0.2
12 H  s               0.0       0.5       2.4       0.7       0.2       1.0
12 H  pz              0.0       0.0       0.3       0.2       0.0       0.2
12 H  px              0.0       0.0       0.6       0.5       0.0       0.1
12 H  py              0.0       0.1       0.0       0.0       0.0       0.9
13 H  s               0.2       0.4       0.6       3.1       0.7       0.6
13 H  pz              0.0       0.0       0.0       0.6       0.0       0.0
13 H  px              0.0       0.2       0.4       0.9       0.1       0.3
13 H  py              0.0       0.0       0.1       0.0       0.0       0.5
14 H  s               0.0       0.1       0.8       3.1       1.6       0.3
14 H  pz              0.0       0.0       0.5       1.5       0.4       0.1
14 H  px              0.0       0.0       0.0       0.2       0.0       0.0
14 H  py              0.0       0.0       0.1       0.0       0.5       0.3
15 H  s               8.8       0.5       3.2       1.4       0.0       2.5
15 H  pz              0.0       0.3       0.1       0.0       0.6       0.1
15 H  px              0.0       0.6       0.4       0.0       0.0       0.0
15 H  py              0.0       0.3       1.0       1.0       0.0       0.6
16 H  s               7.4       0.7       2.5       0.1       0.5       3.3
16 H  pz              0.0       0.1       0.7       0.0       0.6       1.1
16 H  px              0.0       1.0       0.0       0.0       0.0       0.2
16 H  py              0.0       0.1       0.4       0.0       0.2       0.0
17 H  s               0.0      16.5       1.6       0.2       1.4       0.1
17 H  pz              0.4       0.4       0.1       0.0       0.1       0.0
17 H  px              0.0       3.0       0.1       0.0       0.1       0.0
17 H  py              0.7       0.8       0.1       0.0       0.1       0.0

                     30        31        32        33        34        35   
                   0.15092   0.15445   0.15743   0.16509   0.18249   0.18790
                   0.00000   0.00000   0.00000   0.00000   0.00000   0.00000
                  --------  --------  --------  --------  --------  --------
 0 C  s               0.4       5.7       1.6       0.7       2.7       0.1
 0 C  pz              0.3       1.4       4.2       5.1       1.2       5.3
 0 C  px              0.9      13.7       3.5       1.6       0.8       0.9
 0 C  py              1.3      10.5       2.6       9.9       6.5       1.1
 0 C  dz2             0.0       0.1       0.8       1.0       0.0       0.9
 0 C  dxz             0.1       0.2       0.1       0.0       0.0       0.1
 0 C  dyz             0.0       0.2       0.0       0.3       0.0       0.4
 0 C  dx2y2           0.1       0.4       0.1       0.0       0.1       0.1
 0 C  dxy             0.0       0.9       0.1       0.4       0.0       0.0
 1 C  s               0.2       1.9       7.2       2.9       0.9       1.0
 1 C  pz              2.3       3.5       3.0       1.2       7.3       4.4
 1 C  px              3.2       0.6      14.8       2.1       3.1       1.6
 1 C  py              0.9       5.4       0.5       4.3       0.5       1.5
 1 C  dz2             1.0       0.1       0.0       0.3       0.3       1.3
 1 C  dxz             0.4       0.0       0.7       0.0       0.1       0.1
 1 C  dyz             0.0       0.6       0.0       0.2       0.1       0.4
 1 C  dx2y2           0.0       0.0       0.1       0.0       0.0       0.2
 1 C  dxy             0.6       0.6       0.1       0.3       0.3       0.0
 2 C  s               0.5       1.5       9.8       2.5       0.5       2.2
[...]
 2 C  dxy             2.4       0.1       0.0       0.0       0.0       0.0
 3 H  s               0.7       1.0       6.5       0.0       0.0       0.0
 3 H  pz              1.8       2.6      16.1       0.0       0.0       0.0
 3 H  px              0.1       0.0       0.1       0.0       0.0       0.0
 3 H  py              0.0       0.0       0.9       0.0       0.0       0.0
 4 C  s               0.9       0.0       0.0       0.1       0.0       9.6
 4 C  pz              0.4       0.6       0.2       0.0       0.0       0.0
 4 C  px              0.0       0.1       0.3       0.0       0.0       0.0
 4 C  py              2.0       0.0       0.4       0.2       0.0       0.0
 4 C  dz2             2.8       0.8       2.0       0.1       0.0       0.0
 4 C  dxz             0.0       0.0       0.1       0.0       0.0       0.0
 4 C  dyz             0.1       0.3       0.0       0.0       0.0       0.0
 4 C  dx2y2           0.6       0.0       0.0       0.0       0.0       0.0
 4 C  dxy             0.5       0.0       0.4       0.0       0.0       0.0
 5 C  s               0.4       0.0       0.2       1.7       0.2       0.0
 5 C  pz              0.5       3.9       1.2       3.0       0.2       0.0
 5 C  px              1.2       0.2       0.7       5.9       0.9       0.0
 5 C  py              0.3       8.8       0.2       0.9       0.0       0.0
 5 C  dz2             0.2      12.9       3.8       0.3       0.0       0.0
 5 C  dxz             0.2       0.4       0.0       5.8       1.0       0.0
 5 C  dyz             0.3       0.8       0.9       0.7       0.0       0.0
 5 C  dx2y2           0.7       5.4       0.0       6.2       0.3       0.0
 5 C  dxy             0.4       1.0       0.0       0.4       0.3       0.0
 6 O  s               0.2       0.2       0.0      24.4       6.4       0.0
 6 O  pz              0.0       0.0       0.0       7.2       1.0       0.0
 6 O  px              0.1       0.0       0.0      10.1      16.2       0.0
 6 O  py              0.1       0.1       0.0       1.7       3.0       0.0
 6 O  dz2             0.0       0.6       0.0       0.8       1.4       0.0
 6 O  dxz             0.0       0.3       0.2       6.7      16.8       0.0
 6 O  dyz             0.0       0.0       0.0       3.9       3.4       0.0
 6 O  dx2y2           0.0       0.4       0.0      12.1       0.9       0.0
 6 O  dxy             0.0       0.1       0.1       0.0      17.0       0.0
 7 H  s               0.1       0.6       0.0       0.0       0.0       0.0
 7 H  pz              0.1       0.2       0.1       0.0       0.0       0.0
 7 H  px              0.1       1.1       0.0       0.0       0.0       0.0
 7 H  py              0.1       0.0       0.0       0.0       0.0       0.0
 8 H  s               0.6       0.0       0.0       0.0       0.0       0.0
 8 H  pz              1.0       0.0       0.1       0.0       0.0       0.0
 8 H  px              0.1       0.1       0.0       0.0       0.0       0.0
 8 H  py              0.2       0.0       0.0       0.0       0.0       0.0
 9 H  s               2.2       0.3       0.1       0.0       0.0       0.0
 9 H  pz              0.5       0.3       0.1       0.0       0.0       0.0
 9 H  px              2.9       0.3       0.0       0.0       0.0       0.0
 9 H  py              2.7       0.3       0.3       0.0       0.0       0.0
10 H  s               0.3       0.1       2.7       0.0       0.0       0.0
10 H  pz              0.4       0.4       6.9       0.1       0.0       0.0
10 H  py              0.3       0.0       0.1       0.0       0.0       0.0
11 H  s               5.9       0.1       0.8       0.1       0.0       0.0
11 H  pz              1.3       0.0       0.0       0.0       0.0       0.0
11 H  px              7.0       0.2       1.3       0.1       0.0       0.0
11 H  py              7.5       0.0       0.4       0.1       0.0       0.0
12 H  s               0.1       0.1       0.1       0.0       0.0       0.0
12 H  px              0.3       0.1       0.2       0.0       0.0       0.0
13 H  s               0.0       0.0       0.3       0.0       0.0       0.0
13 H  pz              0.0       0.1       0.2       0.0       0.0       0.0
13 H  px              0.0       0.0       0.3       0.0       0.0       0.0
13 H  py              0.1       0.0       0.2       0.0       0.0       0.0
14 H  s               0.8       0.6       0.5       0.0       0.0       0.0
14 H  pz              2.6       1.3       1.3       0.0       0.0       0.0
14 H  py              0.0       0.3       0.2       0.0       0.0       0.0
15 H  s               0.1       7.4       0.4       0.7       0.0       0.0
15 H  pz              0.0       0.1       0.0       0.2       0.0       0.0
15 H  px              0.3       0.7       0.0       0.1       0.0       0.0
15 H  py              0.2      17.0       1.1       1.2       0.0       0.0
16 H  s               0.1       5.9       1.5       0.4       0.0       0.0
16 H  pz              0.2      13.1       3.6       0.4       0.0       0.0
16 H  px              0.1       0.2       0.0       0.4       0.0       0.0
16 H  py              0.1       0.1       0.1       0.3       0.0       0.0
17 H  s               0.0       0.0       0.0       0.6      14.1       0.0
17 H  pz              0.0       0.1       0.1       0.1       2.9       0.0
17 H  px              0.0       0.0       0.0       1.0       9.5       0.0
17 H  py              0.0       0.2       0.0       0.2       4.0       0.0

                    174       175       176       177       178   
                  21.97929  22.04350  22.05934  22.09793  43.63532
                   0.00000   0.00000   0.00000   0.00000   0.00000
                  --------  --------  --------  --------  --------
 0 C  s              10.5       0.7       2.6       0.3       0.0
 1 C  s               0.3      69.8      21.5       5.4       0.0
 2 C  s               1.5       2.2       2.4      91.8       0.0
 4 C  s              76.4       7.4       4.2       2.0       0.0
 5 C  s              11.0      19.6      69.0       0.1       0.1
 6 O  s               0.0       0.0       0.1       0.0      99.8


                      *****************************
                      * MAYER POPULATION ANALYSIS *
                      *****************************

  NA   - Mulliken gross atomic population
  ZA   - Total nuclear charge
  QA   - Mulliken gross atomic charge
  VA   - Mayer's total valence
  BVA  - Mayer's bonded valence
  FA   - Mayer's free valence

  ATOM       NA         ZA         QA         VA         BVA        FA
  0 C      6.5334     6.0000    -0.5334     3.8280     3.8280    -0.0000
  1 C      6.2637     6.0000    -0.2637     3.6075     3.6075    -0.0000
  2 C      6.0006     6.0000    -0.0006     3.4394     3.4394    -0.0000
  3 H      0.8455     1.0000     0.1545     0.9645     0.9645    -0.0000
  4 C      6.5436     6.0000    -0.5436     3.7414     3.7414    -0.0000
  5 C      6.1867     6.0000    -0.1867     3.7536     3.7536     0.0000
  6 O      8.5161     8.0000    -0.5161     1.7831     1.7831    -0.0000
  7 H      0.8428     1.0000     0.1572     0.9587     0.9587    -0.0000
  8 H      0.8421     1.0000     0.1579     0.9600     0.9600    -0.0000
  9 H      0.8448     1.0000     0.1552     0.9610     0.9610    -0.0000
 10 H      0.8492     1.0000     0.1508     0.9623     0.9623    -0.0000
 11 H      0.8480     1.0000     0.1520     0.9591     0.9591    -0.0000
 12 H      0.8380     1.0000     0.1620     0.9598     0.9598     0.0000
 13 H      0.8369     1.0000     0.1631     0.9602     0.9602    -0.0000
 14 H      0.8404     1.0000     0.1596     0.9625     0.9625    -0.0000
 15 H      0.8593     1.0000     0.1407     0.9497     0.9497     0.0000
 16 H      0.8534     1.0000     0.1466     0.9531     0.9531     0.0000
 17 H      0.6557     1.0000     0.3443     0.8870     0.8870     0.0000

  Mayer bond orders larger than 0.100000
B(  0-C ,  1-C ) :   0.8973 B(  0-C ,  7-H ) :   0.9708 B(  0-C ,  8-H ) :   0.9875 
B(  0-C ,  9-H ) :   0.9765 B(  1-C ,  2-C ) :   0.8814 B(  1-C , 10-H ) :   0.9657 
B(  1-C , 11-H ) :   0.9696 B(  2-C ,  3-H ) :   0.9635 B(  2-C ,  4-C ) :   0.8907 
B(  2-C ,  5-C ) :   0.9146 B(  4-C , 12-H ) :   0.9759 B(  4-C , 13-H ) :   0.9740 
B(  4-C , 14-H ) :   0.9791 B(  5-C ,  6-O ) :   0.9086 B(  5-C , 15-H ) :   0.9651 
B(  5-C , 16-H ) :   0.9753 B(  6-O , 17-H ) :   0.8748 

-------
TIMINGS
-------

Total SCF time: 0 days 0 hours 0 min 25 sec 

Total time                  ....      25.006 sec
Sum of individual times     ....      24.500 sec  ( 98.0%)

SCF preparation             ....       0.299 sec  (  1.2%)
Fock matrix formation       ....      23.242 sec  ( 92.9%)
  Startup                   ....       0.076 sec  (  0.3% of F)
  Split-RI-J                ....       3.236 sec  ( 13.9% of F)
  XC integration            ....      15.400 sec  ( 66.3% of F)
    Basis function eval.    ....       2.859 sec  ( 18.6% of XC)
    Density eval.           ....       4.272 sec  ( 27.7% of XC)
    XC-Functional eval.     ....       2.169 sec  ( 14.1% of XC)
    XC-Potential eval.      ....       4.761 sec  ( 30.9% of XC)
  CPCM terms                ....       3.985 sec  ( 17.1% of F)
Diagonalization             ....       0.000 sec  (  0.0%)
Density matrix formation    ....       0.262 sec  (  1.0%)
Total Energy calculation    ....       0.057 sec  (  0.2%)
Population analysis         ....       0.108 sec  (  0.4%)
Orbital Transformation      ....       0.052 sec  (  0.2%)
Orbital Orthonormalization  ....       0.000 sec  (  0.0%)
DIIS solution               ....       0.430 sec  (  1.7%)
  MO trafo                  ....       0.000 sec  (  0.0 % of DIIS)
  Orb grad                  ....       0.000 sec  (  0.0 % of DIIS)
  Energy W gradient         ....       0.000 sec  (  0.0 % of DIIS)
  DIIS error                ....       0.012 sec  (  2.7 % of DIIS)
  DIIS work                 ....       0.366 sec  ( 85.2 % of DIIS)
  Form Q                    ....       0.000 sec  (  0.0 % of DIIS)
  Form QpQm                 ....       0.000 sec  (  0.0 % of DIIS)
  Exp/Cayley                ....       0.000 sec  (  0.0 % of DIIS)
  Orb update                ....       0.000 sec  (  0.0 % of DIIS)
  Wake-sleep                ....       0.027 sec  (  6.3 % of DIIS)
SOSCF solution              ....       0.051 sec  (  0.2%)
  MO trafo                  ....       0.040 sec  ( 79.5 % of SOSCF)
  Orb grad                  ....       0.001 sec  (  1.4 % of SOSCF)
  Rot update                ....       0.000 sec  (  0.2 % of SOSCF)
  Step                      ....       0.009 sec  ( 18.7 % of SOSCF)
Finished LeanSCF after  25.1 sec

Maximum memory used throughout the entire LEANSCF-calculation: 23.4 MB


-------------------------------------------------------------------------------
                          DFT DISPERSION CORRECTION                            
                                                                               
                                DFTD4 V3.4.0                                   
-------------------------------------------------------------------------------
The R2SCAN3C composite method is recognized
Using three-body term ABC
Active option DFTDOPT                   ...         5   

-------------------------   ----------------
Dispersion correction           -0.004317556
-------------------------   ----------------

------------------   -----------------
gCP correction             0.009844730
------------------   -----------------

-------------------------   --------------------
FINAL SINGLE POINT ENERGY      -272.903190525999
-------------------------   --------------------


------------------------------------------------------------------------------
                              ORCA PROPERTY CALCULATIONS
------------------------------------------------------------------------------

GBWName                                 ... sp_solv.gbw
Number of atoms                         ...     18
Number of basis functions               ...    179
Max core memory                         ...   1024 MB

Electric properties:
Dipole moment                           ... YES
Quadrupole moment                       ...  NO
Static polarizability (Dipole/Dipole)   ...  NO
Static polarizability (Dipole/Quad.)    ...  NO
Static polarizability (Quad./Quad.)     ...  NO
Static polarizability (Velocity)        ...  NO

Atomic electric properties:
Dipole moment                           ...  NO
Quadrupole moment                       ...  NO
Static polarizability                   ...  NO

Choice of electric origin               ... Center of mass
Position of electric origin             ...    -0.000029    -0.000001    -0.000006

General magnetic properties:
Magnetizability                         ...  NO

EPR properties:
g-Tensor (aka g-matrix)                 ...  NO
Zero-Field splitting spin-orbit         ...  NO
Zero-field splitting spin-spin          ...  NO
Hyperfine couplings                     ...  NO (   0 nuclei)
Quadrupole couplings                    ...  NO (   0 nuclei)
Contact density                         ...  NO (   0 nuclei)

NMR properties:
Chemical shifts                         ...  NO (   0 nuclei)
Spin-rotation constants                 ...  NO (   0 nuclei)
Spin-spin couplings                     ...  NO (   0 nuclei,    0 pairs)

Choice of magnetic origin               ... GIAO
Position of magnetic origin             ...     0.000000     0.000000     0.000000

Properties with geometric perturbations:
SCF Hessian                             ...  NO
IR spectrum                             ...  NO
VCD spectrum                            ...  NO
X-ray spectroscopy properties:
SCF XES/XAS/RIXS spectra                ...  NO


-------------
DIPOLE MOMENT
-------------

Method             : SCF
Type of density    : Electron Density
Multiplicity       :   1
Irrep              :   0
Energy             :  -272.9087177000563997 Eh
Relativity type    : 
Basis              : AO
                                X                 Y                 Z
Electronic contribution:      4.389077304       0.218665033       0.667160430
Nuclear contribution   :     -4.471920644       0.287341037      -1.307994520
                        -----------------------------------------
Total Dipole Moment    :     -0.082843340       0.506006070      -0.640834090
                        -----------------------------------------
Magnitude (a.u.)       :      0.820715233
Magnitude (Debye)      :      2.086092337



--------------------
Rotational spectrum 
--------------------
 
Rotational constants in cm-1:             0.164136             0.075739             0.056906 
Rotational constants in MHz :          4920.663495          2270.584969          1705.989986 

Dipole components along the rotational axes: 
x,y,z [a.u.] :     0.266188     0.456077    -0.628260 
x,y,z [Debye]:     0.676595     1.159257    -1.596911 

 

Dipole moment calculation done in   0.0 sec 

Maximum memory used throughout the entire PROP-calculation: 10.6 MB

--------------------------------
SUGGESTED CITATIONS FOR THIS RUN
--------------------------------

Below you find a list of papers that are relevant to this ORCA run
We neither can nor want to force you to cite these papers, but we appreciate if you do
You receive ORCA, which is the product of decades of hard work by many enthusiastic individuals, for free
The only thing we kindly ask in return is that you cite our papers,
We deeply appreciate it, if you show your appreciation for ORCA by not just citing the generic ORCA reference.

Please note that relegating all ORCA citations to the supporting information does *not* help us.
SI sections are not indexed - citations you put there will not count into any citation statistics
But we need these citations in order to attract the funding resources that allow us to do what we are doing

Therefore, if you are a happy ORCA user, please consider citing a few of the papers listed below in the main body of your paper

In addition to the list printed below, the program has created the file sp_solv.bibtex that contains the list in bibtex format
You can import this file easily into all common literature databanks and citation aid programs


List of essential papers. We consider these as the minimum necessary citations

  1. Neese,F.
     Software update: the ORCA program system, version 5.0
     WIRES Comput. Molec. Sci., 2022 12(1)e1606
     doi.org/10.1002/wcms.1606
  2. Grimme,S.; Hansen,A.; Ehlert,S.; Mewes,J.
     r2SCAN-3c: A 'Swiss army knife' composite electronic-structure method
     J. Chem. Phys., 2021 154 064103
     doi.org/10.1063/5.0040021

List of papers to cite with high priority. The work reported in these papers was absolutely
necessary for this run to complete.
Our perspective: the developers of density functionals and basis sets usually get cited in chemistry papers
Good! But without the algorithms to do something with them, the functionals or basis sets would not do anything.
Hence, in our opinion, the algorithm design and method developments papers are equally worthy of getting cited

  1. Neese,F.
     An improvement of the resolution of the identity approximation for the formation of the Coulomb matrix
     J. Comp. Chem., 2003 24(14)1740-1747
     doi.org/10.1002/jcc.10318
  2. Garcia-Rates,M.; Neese,F.
     Effect of the Solute Cavity on the Solvation Energy and its Derivatives within the Framework of the Gaussian Charge Scheme
     J. Comput. Chem., 2020 41 922-939
     doi.org/10.1002/jcc.26139
  3. Neese,F.
     The SHARK Integral Generation and Digestion System
     J. Comp. Chem., 2022  1-16
     doi.org/10.1002/jcc.26942
  4. Lehtola,S.; Steigemann,C.; Oliveira,M.; Marques,M.
     Recent developments in Libxc - A comprehensive library of functionals for density functional theory
     Software X, 2018 7 
     doi.org/10.1016/j.softx.2017.11.002
  5. Caldeweyher,E.; Bannwarth,C.; Grimme,S.
     Extension of the D3 dispersion coefficient model
     J. Chem. Phys., 2017 147 034112-XXXX
     doi.org/10.1063/1.4993215
  6. Caldeweyher,E.; Ehlert,S.; Hansen,A.; Neugebauer,H.; Spicher,S.; Bannwarth,C.; Grimme,S.
     A generally applicable atomic-charge dependent London dispersion correction
     J. Chem. Phys., 2019 150 154122-XXXX
     doi.org/10.1063/1.5090222
  7. Caldeweyher,E.; Mewes,J.; Ehlert,S.; Grimme,S.
     Extension and evaluation of the D4 London-dispersion model for periodic systems
     Phys. Chem. Chem. Phys., 2020 22(16)8499-8512
     doi.org/10.1039/D0CP00502A

List of suggested additional citations. These are papers that are important in the 'surrounding' of 
of this run, or papers that preceded the highly important papers. If you like your results we are grateful for a citation.

  1. Neese,F.
     The ORCA program system
     WIRES Comput. Molec. Sci., 2012 2(1)73-78
     doi.org/10.1002/wcms.81
  2. Neese,F.
     Software update: the ORCA program system, version 4.0
     WIRES Comput. Molec. Sci., 2018 8(1)1-6
     doi.org/10.1002/wcms.1327
  3. Neese,F.; Wennmohs,F.; Becker,U.; Riplinger,C.
     The ORCA quantum chemistry program package
     J. Chem. Phys., 2020 152 Art. No. L224108
     doi.org/10.1063/5.0004608

List of optional additional citations

  1. Neese,F.
     Approximate second-order SCF convergence for spin unrestricted wavefunctions
     Chem. Phys. Lett., 2000 325(1-3)93-98
     doi.org/10.1016/s0009-2614(00)00662-x

Timings for individual modules:

Sum of individual times          ...       26.714 sec (=   0.445 min)
Startup calculation              ...        1.117 sec (=   0.019 min)   4.2 %
SCF iterations                   ...       25.473 sec (=   0.425 min)  95.4 %
Property calculations            ...        0.124 sec (=   0.002 min)   0.5 %
                             ****ORCA TERMINATED NORMALLY****
TOTAL RUN TIME: 0 days 0 hours 0 minutes 27 seconds 453 msec
