
                                 *****************
                                 * O   R   C   A *
                                 *****************

                                            #,                                       
                                            ###                                      
                                            ####                                     
                                            #####                                    
                                            ######                                   
                                           ########,                                 
                                     ,,################,,,,,                         
                               ,,#################################,,                 
                          ,,##########################################,,             
                       ,#########################################, ''#####,          
                    ,#############################################,,   '####,        
                  ,##################################################,,,,####,       
                ,###########''''           ''''###############################       
              ,#####''   ,,,,##########,,,,          '''####'''          '####       
            ,##' ,,,,###########################,,,                        '##       
           ' ,,###''''                  '''############,,,                           
         ,,##''                                '''############,,,,        ,,,,,,###''
      ,#''                                            '''#######################'''  
     '                                                          ''''####''''         
             ,#######,   #######,   ,#######,      ##                                
            ,#'     '#,  ##    ##  ,#'     '#,    #''#        ,####,   ,####,        
            ##       ##  ##   ,#'  ##            #'  '#       #'       #'  '#        
            ##       ##  #######   ##           ,######,      #####,   #    #        
            '#,     ,#'  ##    ##  '#,     ,#' ,#      #,     #,   #   #,  ,#        
             '#######'   ##     ##  '#######'  #'      '#     '####' # '####'        



                #########################################################
                #                        -***-                          #
                #          Department of theory and spectroscopy        #
                #                                                       #
                #                      Frank Neese                      #
                #                                                       #
                #     Directorship, Architecture, Infrastructure        #
                #                    SHARK, DRIVERS                     #
                #        Core code/Algorithms in most modules           #
                #                                                       #
                #        Max Planck Institute fuer Kohlenforschung      #
                #                Kaiser Wilhelm Platz 1                 #
                #                 D-45470 Muelheim/Ruhr                 #
                #                      Germany                          #
                #                                                       #
                #                  All rights reserved                  #
                #                        -***-                          #
                #########################################################


                         Program Version 6.0.0  -   RELEASE  -


 With contributions from (in alphabetic order):
   Daniel Aravena         : Magnetic Suceptibility
   Michael Atanasov       : Ab Initio Ligand Field Theory (pilot matlab implementation)
   Alexander A. Auer      : GIAO ZORA, VPT2 properties, NMR spectrum
   Ute Becker             : All parallelization in ORCA, NUMFREQ, NUMCALC
   Giovanni Bistoni       : ED, misc. LED, open-shell LED, HFLD
   Martin Brehm           : Molecular dynamics
   Dmytro Bykov           : pre 5.0 version of the SCF Hessian
   Marcos Casanova-Páez   : Triplet and SCS-CIS(D). UHF-(DLPNO)-IP/EA/STEOM-CCSD. UHF-CVS-IP/STEOM-CCSD
   Vijay G. Chilkuri      : MRCI spin determinant printing, contributions to CSF-ICE
   Pauline Colinet        : FMM embedding
   Dipayan Datta          : RHF DLPNO-CCSD density
   Achintya Kumar Dutta   : EOM-CC, STEOM-CC
   Nicolas Foglia         : Exact transition moments, OPA infrastructure, MCD improvements
   Dmitry Ganyushin       : Spin-Orbit,Spin-Spin,Magnetic field MRCI
   Miquel Garcia          : C-PCM and meta-GGA Hessian, CCSD/C-PCM, Gaussian charge scheme
   Tiago L. C. Gouveia    : GS-ROHF, GS-ROCIS
   Yang Guo               : DLPNO-NEVPT2, F12-NEVPT2, CIM, IAO-localization
   Andreas Hansen         : Spin unrestricted coupled pair/coupled cluster methods
   Ingolf Harden          : AUTO-CI MPn and infrastructure 
   Benjamin Helmich-Paris : MC-RPA, TRAH-(SCF,CASSCF), AVAS, COSX integrals, SCF dyn. polar.
   Lee Huntington         : MR-EOM, pCC
   Robert Izsak           : Overlap fitted RIJCOSX, COSX-SCS-MP3, EOM
   Riya Kayal             : Wick's Theorem for AUTO-CI, AUTO-CI UHF-CCSDT
   Emily Kempfer          : AUTO-CI, RHF CISDT and CCSDT
   Christian Kollmar      : KDIIS, OOCD, Brueckner-CCSD(T), CCSD density, CASPT2, CASPT2-K, improved NEVPT2
   Axel Koslowski         : Symmetry handling
   Simone Kossmann        : Meta GGA functionals, TD-DFT gradient, OOMP2, (MP2 Hessian; deprecated post 5.0)
   Lucas Lang             : DCDCAS
   Marvin Lechner         : AUTO-CI (C++ implementation), FIC-MRCC
   Spencer Leger          : CASSCF response
   Dagmar Lenk            : GEPOL surface, SMD, ORCA-2-JSON
   Dimitrios Liakos       : Extrapolation schemes; Compound Job, initial MDCI parallelization
   Dimitrios Manganas     : Further ROCIS development; embedding schemes. LFT, Crystal Embedding
   Dimitrios Pantazis     : SARC Basis sets
   Anastasios Papadopoulos: AUTO-CI, single reference methods and gradients
   Taras Petrenko         : pre 6.0 DFT Hessian and TD-DFT gradient, (ASA, deprecated), ECA, 1-Electron XAS/XES, NRVS
   Peter Pinski           : DLPNO-MP2, DLPNO-MP2 Gradient
   Christoph Reimann      : Effective Core Potentials
   Marius Retegan         : Local ZFS, SOC
   Christoph Riplinger    : Optimizer, TS searches, QM/MM, DLPNO-CCSD(T), (RO)-DLPNO pert. Triples
   Michael Roemelt        : Original ROCIS implementation
   Masaaki Saitow         : Open-shell DLPNO-CCSD energy and density
   Barbara Sandhoefer     : DKH picture change effects
   Kantharuban Sivalingam : CASSCF convergence/infrastructure, NEVPT2 and variants, FIC-MRCI
   Bernardo de Souza      : ESD, SOC TD-DFT
   Georgi Stoychev        : AutoAux, RI-MP2 NMR, DLPNO-MP2 response, X2C
   Van Anh Tran           : RI-MP2 g-tensors
   Willem Van den Heuvel  : Paramagnetic NMR
   Zikuan Wang            : NOTCH, Electric field optimization 
   Frank Wennmohs         : Technical directorship and infrastructure
   Hang Xu                : AUTO-CI-Response properties 


 We gratefully acknowledge several colleagues who have allowed us to
 interface, adapt or use parts of their codes:
   Stefan Grimme, W. Hujo, H. Kruse, P. Pracht,  : VdW corrections, initial TS optimization,
                  C. Bannwarth, S. Ehlert,         DFT functionals, gCP, sTDA/sTD-DF
                  L. Wittmann, M. Mueller
   Ed Valeev, F. Pavosevic, A. Kumar             : LibInt (2-el integral package), F12 methods
   Garnet Chan, S. Sharma, J. Yang, R. Olivares  : DMRG
   Ulf Ekstrom                                   : XCFun DFT Library
   Mihaly Kallay                                 : mrcc  (arbitrary order and MRCC methods)
   Frank Weinhold                                : gennbo (NPA and NBO analysis)
   Simon Mueller                                 : openCOSMO-RS
   Christopher J. Cramer and Donald G. Truhlar   : smd solvation model
   Lars Goerigk                                  : TD-DFT with DH, B97 family of functionals
   V. Asgeirsson, H. Jonsson                     : NEB implementation
   FAccTs GmbH                                   : IRC, NEB, NEB-TS, DLPNO-Multilevel, CI-OPT
                                                   MM, QMMM, 2- and 3-layer-ONIOM, Crystal-QMMM,
                                                   LR-CPCM, SF, NACMEs, symmetry and pop. for TD-DFT,
                                                   nearIR, NL-DFT gradient (VV10), updates on ESD,
                                                   ML-optimized integration grids, MBIS, APM,
                                                   GOAT, DOCKER, SOLVATOR, interface openCOSMO-RS
   S Lehtola, MJT Oliveira, MAL Marques          : LibXC Library
   Liviu Ungur et al                             : ANISO software


 Your calculation uses the libint2 library for the computation of 2-el integrals
 For citations please refer to: http://libint.valeyev.net

 Your ORCA version has been built with support for libXC version: 6.2.2
 For citations please refer to: https://libxc.gitlab.io

 This ORCA versions uses:
   CBLAS   interface :  Fast vector & matrix operations
   LAPACKE interface :  Fast linear algebra routines
   SCALAPACK package :  Parallel linear algebra routines
   Shared memory     :  Shared parallel matrices
   BLAS/LAPACK       :  OpenBLAS 0.3.27  USE64BITINT DYNAMIC_ARCH NO_AFFINITY SkylakeX SINGLE_THREADED
        Core in use  :  SkylakeX
   Copyright (c) 2011-2014, The OpenBLAS Project


Your calculation utilizes the geometrical counterpoise correction gCP
Please cite in your paper:
H.Kruse, S. Grimme J.Chem.Phys., 136, (2012), 154101 
   

Your calculation utilizes the atom-pairwise dispersion correction
based on EEQ partial charges (D4)


================================================================================

----- Orbital basis set information -----
Your calculation utilizes the basis: def2-SV(P)
   F. Weigend and R. Ahlrichs, Phys. Chem. Chem. Phys. 7, 3297 (2005).

----- AuxJ basis set information -----
Your calculation utilizes the auxiliary basis: def2/J
   F. Weigend, Phys. Chem. Chem. Phys. 8, 1057 (2006).

================================================================================
                                        WARNINGS
                       Please study these warnings very carefully!
================================================================================


================================================================================
                                       INPUT FILE
================================================================================
NAME = sp.inp
|  1> ! pbe def2-sv(p) def2/J RI DEFGRID1 loosescf d4 GCP(DFT/SV(P)) printgap
|  2> %output
|  3>     printlevel normal
|  4> end
|  5> * xyz 0 1
|  6> C -2.2727227962 0.9334930604 -0.6852002969
|  7> C -2.0959317736 -0.3207565597 0.1623589419
|  8> C -0.8105400431 -0.264580261 0.9901435077
|  9> C 0.4158942373 -0.3394147415 0.1184627075
| 10> O 0.5507324479 -1.0609934959 -0.8469413938
| 11> O 1.3686045948 0.4852582169 0.5446109397
| 12> C 2.6056495411 0.4948427449 -0.1725924055
| 13> H -3.2004969659 0.8824688103 -1.2485376883
| 14> H -2.2971165603 1.8206118024 -0.0567163017
| 15> H -1.4498532308 1.0319334171 -1.3906892963
| 16> H -2.0546474991 -1.1971844912 -0.4869081006
| 17> H -2.9457014158 -0.4304792953 0.8363998645
| 18> H -0.7716802927 -1.1228598146 1.6645864371
| 19> H -0.7580016036 0.6476403662 1.5836996988
| 20> H 3.0555825134 -0.4984318393 -0.1536654721
| 21> H 3.2339233744 1.2184906092 0.3366839114
| 22> H 2.4328603112 0.7858882996 -1.2093777928
| 23> *
| 24> 
| 25>                          ****END OF INPUT****
================================================================================

                       ****************************
                       * Single Point Calculation *
                       ****************************

---------------------------------
CARTESIAN COORDINATES (ANGSTROEM)
---------------------------------
  C     -2.272723    0.933493   -0.685200
  C     -2.095932   -0.320757    0.162359
  C     -0.810540   -0.264580    0.990144
  C      0.415894   -0.339415    0.118463
  O      0.550732   -1.060993   -0.846941
  O      1.368605    0.485258    0.544611
  C      2.605650    0.494843   -0.172592
  H     -3.200497    0.882469   -1.248538
  H     -2.297117    1.820612   -0.056716
  H     -1.449853    1.031933   -1.390689
  H     -2.054647   -1.197184   -0.486908
  H     -2.945701   -0.430479    0.836400
  H     -0.771680   -1.122860    1.664586
  H     -0.758002    0.647640    1.583700
  H      3.055583   -0.498432   -0.153665
  H      3.233923    1.218491    0.336684
  H      2.432860    0.785888   -1.209378

----------------------------
CARTESIAN COORDINATES (A.U.)
----------------------------
  NO LB      ZA    FRAG     MASS         X           Y           Z
   0 C     6.0000    0    12.011   -4.294824    1.764046   -1.294841
   1 C     6.0000    0    12.011   -3.960737   -0.606142    0.306814
   2 C     6.0000    0    12.011   -1.531699   -0.499984    1.871100
   3 C     6.0000    0    12.011    0.785926   -0.641401    0.223862
   4 O     8.0000    0    15.999    1.040733   -2.004987   -1.600487
   5 O     8.0000    0    15.999    2.586288    0.917005    1.029166
   6 C     6.0000    0    12.011    4.923964    0.935117   -0.326152
   7 H     1.0000    0     1.008   -6.048063    1.667624   -2.359394
   8 H     1.0000    0     1.008   -4.340921    3.440458   -0.107178
   9 H     1.0000    0     1.008   -2.739826    1.950072   -2.628022
  10 H     1.0000    0     1.008   -3.882721   -2.262351   -0.920123
  11 H     1.0000    0     1.008   -5.566569   -0.813488    1.580567
  12 H     1.0000    0     1.008   -1.458264   -2.121898    3.145612
  13 H     1.0000    0     1.008   -1.432415    1.223863    2.992759
  14 H     1.0000    0     1.008    5.774214   -0.941900   -0.290386
  15 H     1.0000    0     1.008    6.111230    2.302614    0.636240
  16 H     1.0000    0     1.008    4.597440    1.485114   -2.285393

--------------------------------
INTERNAL COORDINATES (ANGSTROEM)
--------------------------------
 C      0   0   0     0.000000000000     0.00000000     0.00000000
 C      1   0   0     1.524058344837     0.00000000     0.00000000
 C      2   1   0     1.529906848390   111.60103316     0.00000000
 C      3   2   1     1.506508765673   111.65938155   291.90221089
 O      4   3   2     1.212791128202   125.49623936   319.27559179
 O      4   3   2     1.330167218590   111.52527745   140.01498251
 C      6   4   3     1.429948495824   117.58616395   178.53713482
 H      1   2   3     1.086608209342   110.40858498   181.18099105
 H      1   2   3     1.087458895939   110.64353032   301.42201924
 H      1   2   3     1.088356354216   110.31723487    61.52986151
 H      2   1   3     1.091502635320   109.53557499   239.65711289
 H      2   1   3     1.090173696643   109.64864899   120.76102963
 H      3   2   1     1.092257816336   109.58075579   173.76250855
 H      3   2   1     1.089594287938   111.46915387    53.45693854
 H      7   6   4     1.090592640718   110.00450968   300.44612774
 H      7   6   4     1.085244953027   105.65990055   180.42655551
 H      7   6   4     1.090636315276   109.96984546    60.45780154

---------------------------
INTERNAL COORDINATES (A.U.)
---------------------------
 C      0   0   0     0.000000000000     0.00000000     0.00000000
 C      1   0   0     2.880052883860     0.00000000     0.00000000
 C      2   1   0     2.891104953867   111.60103316     0.00000000
 C      3   2   1     2.846888985474   111.65938155   291.90221089
 O      4   3   2     2.291843089952   125.49623936   319.27559179
 O      4   3   2     2.513651755455   111.52527745   140.01498251
 C      6   4   3     2.702211042720   117.58616395   178.53713482
 H      1   2   3     2.053391930528   110.40858498   181.18099105
 H      1   2   3     2.054999495221   110.64353032   301.42201924
 H      1   2   3     2.056695445582   110.31723487    61.52986151
 H      2   1   3     2.062641055209   109.53557499   239.65711289
 H      2   1   3     2.060129725059   109.64864899   120.76102963
 H      3   2   1     2.064068140509   109.58075579   173.76250855
 H      3   2   1     2.059034801288   111.46915387    53.45693854
 H      7   6   4     2.060921414627   110.00450968   300.44612774
 H      7   6   4     2.050815749441   105.65990055   180.42655551
 H      7   6   4     2.061003947581   109.96984546    60.45780154

---------------------
BASIS SET INFORMATION
---------------------
There are 3 groups of distinct atoms

 Group   1 Type C   : 7s4p1d contracted to 3s2p1d pattern {511/31/1}
 Group   2 Type O   : 7s4p1d contracted to 3s2p1d pattern {511/31/1}
 Group   3 Type H   : 4s contracted to 2s pattern {31}

Atom   0C    basis set group =>   1
Atom   1C    basis set group =>   1
Atom   2C    basis set group =>   1
Atom   3C    basis set group =>   1
Atom   4O    basis set group =>   2
Atom   5O    basis set group =>   2
Atom   6C    basis set group =>   1
Atom   7H    basis set group =>   3
Atom   8H    basis set group =>   3
Atom   9H    basis set group =>   3
Atom  10H    basis set group =>   3
Atom  11H    basis set group =>   3
Atom  12H    basis set group =>   3
Atom  13H    basis set group =>   3
Atom  14H    basis set group =>   3
Atom  15H    basis set group =>   3
Atom  16H    basis set group =>   3
---------------------------------
AUXILIARY/J BASIS SET INFORMATION
---------------------------------
There are 3 groups of distinct atoms

 Group   1 Type C   : 12s5p4d2f1g contracted to 6s4p3d1f1g pattern {711111/2111/211/2/1}
 Group   2 Type O   : 12s5p4d2f1g contracted to 6s4p3d1f1g pattern {711111/2111/211/2/1}
 Group   3 Type H   : 5s2p1d contracted to 3s1p1d pattern {311/2/1}

Atom   0C    basis set group =>   1
Atom   1C    basis set group =>   1
Atom   2C    basis set group =>   1
Atom   3C    basis set group =>   1
Atom   4O    basis set group =>   2
Atom   5O    basis set group =>   2
Atom   6C    basis set group =>   1
Atom   7H    basis set group =>   3
Atom   8H    basis set group =>   3
Atom   9H    basis set group =>   3
Atom  10H    basis set group =>   3
Atom  11H    basis set group =>   3
Atom  12H    basis set group =>   3
Atom  13H    basis set group =>   3
Atom  14H    basis set group =>   3
Atom  15H    basis set group =>   3
Atom  16H    basis set group =>   3
------------------------------------------------------------------------------
                             ORCA STARTUP CALCULATIONS
                           -- RI-GTO INTEGRALS CHOSEN --
------------------------------------------------------------------------------
------------------------------------------------------------------------------
                   ___                                                        
                  /   \      - P O W E R E D   B Y -                         
                 /     \                                                     
                 |  |  |   _    _      __       _____    __    __             
                 |  |  |  | |  | |    /  \     |  _  \  |  |  /  |          
                  \  \/   | |  | |   /    \    | | | |  |  | /  /          
                 / \  \   | |__| |  /  /\  \   | |_| |  |  |/  /          
                |  |  |   |  __  | /  /__\  \  |    /   |      \           
                |  |  |   | |  | | |   __   |  |    \   |  |\   \          
                \     /   | |  | | |  |  |  |  | |\  \  |  | \   \       
                 \___/    |_|  |_| |__|  |__|  |_| \__\ |__|  \__/        
                                                                              
                      - O R C A' S   B I G   F R I E N D -                    
                                      &                                       
                       - I N T E G R A L  F E E D E R -                       
                                                                              
 v1 FN, 2020, v2 2021, v3 2022-2024                                           
------------------------------------------------------------------------------


----------------------
SHARK INTEGRAL PACKAGE
----------------------

Number of atoms                             ...     17
Number of basis functions                   ...    118
Number of shells                            ...     62
Maximum angular momentum                    ...      2
Integral batch strategy                     ... SHARK/LIBINT Hybrid
RI-J (if used) integral strategy            ... SPLIT-RIJ (Revised 2003 algorithm where possible)
Printlevel                                  ...      1
Contraction scheme used                     ... SEGMENTED contraction
Prescreening option                         ... SCHWARTZ
   Thresh                                   ... 1.000e-09
   Tcut                                     ... 1.000e-10
   Tpresel                                  ... 1.000e-10 
Coulomb Range Separation                    ... NOT USED
Exchange Range Separation                   ... NOT USED
Multipole approximations                    ... NOT USED
Finite Nucleus Model                        ... NOT USED
CABS basis                                  ... NOT available
Auxiliary Coulomb fitting basis             ... AVAILABLE
   # of basis functions in Aux-J            ...    453
   # of shells in Aux-J                     ...    155
   Maximum angular momentum in Aux-J        ...      4
Auxiliary J/K fitting basis                 ... NOT available
Auxiliary Correlation fitting basis         ... NOT available
Auxiliary 'external' fitting basis          ... NOT available

Checking pre-screening integrals            ... done (  0.0 sec) Dimension = 62
Check shell pair data                       ... done (  0.0 sec)
Shell pair information
Shell pair cut-off parameter TPreSel        ...   1.0e-10
Total number of shell pairs                 ...      1953
Shell pairs after pre-screening             ...      1853
Total number of primitive shell pairs       ...      7871
Primitive shell pairs kept                  ...      5301
          la=0 lb=0:    801 shell pairs
          la=1 lb=0:    559 shell pairs
          la=1 lb=1:    105 shell pairs
          la=2 lb=0:    266 shell pairs
          la=2 lb=1:     96 shell pairs
          la=2 lb=2:     26 shell pairs

Calculating one electron integrals          ... done (  0.0 sec)
Calculating RI/J V-Matrix + Cholesky decomp.... done (  0.1 sec)
Calculating Nuclear repulsion               ... done (  0.0 sec) ENN=    318.483294442268 Eh

Diagonalization of the overlap matrix:
Smallest eigenvalue                        ... 1.951e-03
Time for diagonalization                   ...    0.003 sec
Threshold for overlap eigenvalues          ... 1.000e-07
Number of eigenvalues below threshold      ... 0
Time for construction of square roots      ...    0.021 sec
Total time needed                          ...    0.034 sec

-------------------
DFT GRID GENERATION
-------------------

General Integration Accuracy     IntAcc      ... 4.159
Radial Grid Type                 RadialGrid  ... OptM3 with GC (2021)
Angular Grid (max. ang.)         AngularGrid ... 3 (Lebedev-194)
Angular grid pruning method      GridPruning ... 4 (adaptive)
Weight generation scheme         WeightScheme... mBecke (2022)
Basis function cutoff            BFCut       ... 1.0000e-10
Integration weight cutoff        WCut        ... 1.0000e-14
Partially contracted basis set               ... off
Rotationally invariant grid construction     ... off
Angular grids for H and He will be reduced by one unit

Total number of grid points                  ...    37089
Total number of batches                      ...      589
Average number of points per batch           ...       62
Average number of grid points per atom       ...     2182
Initializing property integral containers    ... done (  0.1 sec)

SHARK setup successfully completed in   0.7 seconds

Maximum memory used throughout the entire STARTUP-calculation: 18.4 MB
-------------------------------------------------------------------------------
                                 ORCA GUESS
                   Start orbitals & Density for SCF / CASSCF
-------------------------------------------------------------------------------

------------
SCF SETTINGS
------------
Hamiltonian:
 Density Functional     Method          .... DFT(GTOs)
 Exchange Functional    Exchange        .... PBE
   PBE kappa parameter   XKappa         ....  0.804000
   PBE mue parameter    XMuePBE         ....  0.219520
 Correlation Functional Correlation     .... PBE
   PBE beta parameter  CBetaPBE         ....  0.066725
 LDA part of GGA corr.  LDAOpt          .... PW91-LDA
 Gradients option       PostSCFGGA      .... off
   NL short-range parameter             ....  6.400000
 RI-approximation to the Coulomb term is turned on
   Number of AuxJ basis functions       .... 453


General Settings:
 Integral files         IntName         .... sp
 Hartree-Fock type      HFTyp           .... RHF
 Total Charge           Charge          ....    0
 Multiplicity           Mult            ....    1
 Number of Electrons    NEL             ....   56
 Basis Dimension        Dim             ....  118
 Nuclear Repulsion      ENuc            ....    318.4832944423 Eh

Convergence Acceleration:
 AO-DIIS                CNVDIIS         .... on
   Start iteration      DIISMaxIt       ....    12
   Startup error        DIISStart       ....  0.200000
   # of expansion vecs  DIISMaxEq       ....     5
   Bias factor          DIISBfac        ....   1.050
   Max. coefficient     DIISMaxC        ....  10.000
 MO-DIIS                CNVKDIIS        .... off
 Trust-Rad. Augm. Hess. CNVTRAH         .... auto
   Auto Start mean grad. ratio tolernc. ....  1.125000
   Auto Start start iteration           ....    50
   Auto Start num. interpolation iter.  ....    10
   Max. Number of Micro iterations      ....    24
   Max. Number of Macro iterations      .... Maxiter - #DIIS iter
   Number of Davidson start vectors     ....     2
   Converg. threshold    (grad. norm)   ....   1.000e-04
   Grad. Scal. Fac. for Micro threshold ....   0.100
   Minimum threshold for Micro iter.    ....   1.000e-02
   NR start threshold (gradient norm)   ....   1.000e-04
   Initial trust radius                 ....   0.400
   Minimum AH scaling param. (alpha)    ....   1.000
   Maximum AH scaling param. (alpha)    .... 1000.000
   Quad. conv. algorithm                .... NR
   White noise on init. David. guess    .... on
   Maximum white noise                  ....   0.010
   Pseudo random numbers                .... off
   Inactive MOs                         .... canonical
   Orbital update algorithm             .... Taylor
   Preconditioner                       .... Diag
   Full preconditioner red. dimension   ....   250
 SOSCF                  CNVSOSCF        .... on
   Start iteration      SOSCFMaxIt      ....   150
   Startup grad/error   SOSCFStart      ....  0.003300
   Hessian update       SOSCFHessUp     .... L-BFGS
 Level Shifting         CNVShift        .... on
   Level shift para.    LevelShift      ....    0.2500
   Turn off err/grad.   ShiftErr        ....    0.0010
 Zerner damping         CNVZerner       .... off
 Static damping         CNVDamp         .... on
   Fraction old density DampFac         ....    0.7000
   Max. Damping (<1)    DampMax         ....    0.9800
   Min. Damping (>=0)   DampMin         ....    0.0000
   Turn off err/grad.   DampErr         ....    0.1000

SCF Procedure:
 Maximum # iterations   MaxIter         ....   125
 SCF integral mode      SCFMode         .... Direct
   Integral package                     .... SHARK and LIBINT hybrid scheme
 Reset frequency        DirectResetFreq ....    20
 Integral Threshold     Thresh          ....  1.000e-09 Eh
 Primitive CutOff       TCut            ....  1.000e-10 Eh

Convergence Tolerance:
 Convergence Check Mode ConvCheckMode   .... Total+1el-Energy
 Convergence forced     ConvForced      .... 0
 Energy Change          TolE            ....  1.000e-05 Eh
 1-El. energy change                    ....  1.000e-02 Eh
 Orbital Gradient       TolG            ....  1.000e-04
 Orbital Rotation angle TolX            ....  1.000e-04
 DIIS Error             TolErr          ....  5.000e-04

------------------------------
INITIAL GUESS: MODEL POTENTIAL
------------------------------
Loading Hartree-Fock densities                     ... done
Calculating cut-offs                               ... done
Initializing the effective Hamiltonian             ... done
Setting up the integral package (SHARK)            ... done
Starting the Coulomb interaction                   ... done (   0.1 sec)
Making the grid                                    ... done (   0.2 sec)
Mapping shells                                     ... done
Starting the XC term evaluation                    ... done (   0.1 sec)
  promolecular density results
     # of electrons  =     55.998781593
     EX              =    -44.832775578
     EC              =     -1.844414636
     EX+EC           =    -46.677190215
Transforming the Hamiltonian                       ... done (   0.0 sec)
Diagonalizing the Hamiltonian                      ... done (   0.0 sec)
Back transforming the eigenvectors                 ... done (   0.0 sec)
Now organizing SCF variables                       ... done
                      ------------------
                      INITIAL GUESS DONE (   0.5 sec)
                      ------------------
             **** ENERGY FILE WAS UPDATED (sp.en.tmp) ****
Finished Guess after   0.7 sec
Maximum memory used throughout the entire GUESS-calculation: 14.1 MB

-------------------------------------------------------------------------------------------
                                      ORCA LEAN-SCF
                              memory conserving SCF solver
-------------------------------------------------------------------------------------------

----------------------------------------D-I-I-S--------------------------------------------
Iteration    Energy (Eh)           Delta-E    RMSDP     MaxDP     DIISErr   Damp  Time(sec)
-------------------------------------------------------------------------------------------
               ***  Starting incremental Fock matrix formation  ***
    1    -346.0940894783340696     0.00e+00  5.27e-03  9.20e-02  2.40e-01  0.700   0.8
    2    -346.2012428266852453    -1.07e-01  3.28e-03  5.43e-02  7.60e-02  0.700   0.8
                               ***Turning on AO-DIIS***
    3    -346.2333949388633414    -3.22e-02  1.34e-03  1.46e-02  2.45e-02  0.700   0.9
    4    -346.2548364502181926    -2.14e-02  1.89e-03  2.11e-02  1.84e-02  0.000   0.7
    5    -346.3048742458381071    -5.00e-02  6.00e-04  8.79e-03  8.49e-03  0.000   0.8
                              *** Initializing SOSCF ***
---------------------------------------S-O-S-C-F--------------------------------------
Iteration    Energy (Eh)           Delta-E    RMSDP     MaxDP     MaxGrad    Time(sec)
--------------------------------------------------------------------------------------
    6    -346.3054941064519312    -6.20e-04  2.27e-04  2.49e-03  3.07e-03     0.7
               *** Restarting incremental Fock matrix formation ***
    7    -346.3055406190874805    -4.65e-05  1.67e-04  2.53e-03  6.21e-04     0.7
    8    -346.3055228050562278     1.78e-05  9.27e-05  1.88e-03  1.85e-03     0.7
    9    -346.3055464839082447    -2.37e-05  6.89e-05  9.94e-04  2.92e-04     0.7
   10    -346.3055431990304101     3.28e-06  4.12e-05  6.49e-04  4.72e-04     0.7
                 **** Energy Check signals convergence ****

               *****************************************************
               *                     SUCCESS                       *
               *           SCF CONVERGED AFTER  10 CYCLES          *
               *****************************************************

             **** ENERGY FILE WAS UPDATED (sp.en.tmp) ****

----------------
TOTAL SCF ENERGY
----------------

Total Energy       :       -346.30554319903041 Eh           -9423.45291 eV

Components:
Nuclear Repulsion  :        318.48329444226812 Eh            8666.37103 eV
Electronic Energy  :       -664.78883764129853 Eh          -18089.82394 eV
One Electron Energy:      -1101.67484579263669 Eh          -29978.09661 eV
Two Electron Energy:        436.88600815133816 Eh           11888.27267 eV

Virial components:
Potential Energy   :       -689.85568642248290 Eh          -18771.92757 eV
Kinetic Energy     :        343.55014322345249 Eh            9348.47466 eV
Virial Ratio       :          2.00802037207647

DFT components:
N(Alpha)           :       27.999936862161 electrons
N(Beta)            :       27.999936862161 electrons
N(Total)           :       55.999873724321 electrons
E(X)               :      -45.740315237546 Eh       
E(C)               :       -1.859812090320 Eh       
E(XC)              :      -47.600127327865 Eh       

---------------
SCF CONVERGENCE
---------------

  Last Energy change         ...   -3.2849e-06  Tolerance :   1.0000e-05
  Last MAX-Density change    ...    6.4866e-04  Tolerance :   1.0000e-03
  Last RMS-Density change    ...    4.1224e-05  Tolerance :   1.0000e-04
  Last DIIS Error            ...    3.0652e-03  Tolerance :   5.0000e-04
  Last Orbital Gradient      ...    4.7192e-04  Tolerance :   1.0000e-04
  Last Orbital Rotation      ...    4.4523e-04  Tolerance :   1.0000e-04


----------------
ORBITAL ENERGIES
----------------

  NO   OCC          E(Eh)            E(eV) 
   0   2.0000     -18.799822      -511.5692 
   1   2.0000     -18.732964      -509.7499 
   2   2.0000     -10.005016      -272.2503 
   3   2.0000      -9.941955      -270.5343 
   4   2.0000      -9.897219      -269.3170 
   5   2.0000      -9.889082      -269.0956 
   6   2.0000      -9.875452      -268.7247 
   7   2.0000      -1.005428       -27.3591 
   8   2.0000      -0.909417       -24.7465 
   9   2.0000      -0.724254       -19.7080 
  10   2.0000      -0.671767       -18.2797 
  11   2.0000      -0.619511       -16.8578 
  12   2.0000      -0.539331       -14.6759 
  13   2.0000      -0.498983       -13.5780 
  14   2.0000      -0.450140       -12.2489 
  15   2.0000      -0.440503       -11.9867 
  16   2.0000      -0.418945       -11.4001 
  17   2.0000      -0.403381       -10.9766 
  18   2.0000      -0.389480       -10.5983 
  19   2.0000      -0.361224        -9.8294 
  20   2.0000      -0.356083        -9.6895 
  21   2.0000      -0.340815        -9.2740 
  22   2.0000      -0.310766        -8.4564 
  23   2.0000      -0.298366        -8.1190 
  24   2.0000      -0.296678        -8.0730 
  25   2.0000      -0.293556        -7.9881 
  26   2.0000      -0.258704        -7.0397 
  27   2.0000      -0.219153        -5.9634 
  28   0.0000      -0.020621        -0.5611 
  29   0.0000       0.040204         1.0940 
  30   0.0000       0.060349         1.6422 
  31   0.0000       0.079266         2.1569 
  32   0.0000       0.083092         2.2611 
  33   0.0000       0.086590         2.3562 
  34   0.0000       0.101863         2.7718 
  35   0.0000       0.111309         3.0289 
  36   0.0000       0.117484         3.1969 
  37   0.0000       0.122749         3.3402 
  38   0.0000       0.136458         3.7132 
*Only the first 10 virtual orbitals were printed.

                    ********************************
                    * MULLIKEN POPULATION ANALYSIS *
                    ********************************

-----------------------
MULLIKEN ATOMIC CHARGES
-----------------------
   0 C :   -0.291555
   1 C :   -0.186258
   2 C :   -0.139259
   3 C :    0.087309
   4 O :   -0.211551
   5 O :   -0.236645
   6 C :   -0.109682
   7 H :    0.107097
   8 H :    0.097499
   9 H :    0.115540
  10 H :    0.107210
  11 H :    0.088390
  12 H :    0.116550
  13 H :    0.096065
  14 H :    0.118727
  15 H :    0.121278
  16 H :    0.119286
Sum of atomic charges:    0.0000000

--------------------------------
MULLIKEN REDUCED ORBITAL CHARGES
--------------------------------
  0 C s       :     3.096832  s :     3.096832
      pz      :     1.055785  p :     3.165429
      px      :     1.076891
      py      :     1.032752
      dz2     :     0.001935  d :     0.029294
      dxz     :     0.009318
      dyz     :     0.007549
      dx2y2   :     0.008533
      dxy     :     0.001959

  1 C s       :     3.070383  s :     3.070383
      pz      :     1.011336  p :     3.079114
      px      :     1.003667
      py      :     1.064112
      dz2     :     0.003378  d :     0.036761
      dxz     :     0.010432
      dyz     :     0.009629
      dx2y2   :     0.009238
      dxy     :     0.004085

  2 C s       :     3.008578  s :     3.008578
      pz      :     1.067371  p :     3.097340
      px      :     0.996742
      py      :     1.033227
      dz2     :     0.002816  d :     0.033341
      dxz     :     0.007583
      dyz     :     0.010198
      dx2y2   :     0.009153
      dxy     :     0.003592

  3 C s       :     3.062508  s :     3.062508
      pz      :     0.926325  p :     2.720019
      px      :     0.930787
      py      :     0.862907
      dz2     :     0.026541  d :     0.130164
      dxz     :     0.034083
      dyz     :     0.020071
      dx2y2   :     0.022132
      dxy     :     0.027337

  4 O s       :     3.747531  s :     3.747531
      pz      :     1.345361  p :     4.446440
      px      :     1.689458
      py      :     1.411621
      dz2     :     0.005414  d :     0.017580
      dxz     :     0.002719
      dyz     :     0.005743
      dx2y2   :     0.002042
      dxy     :     0.001663

  5 O s       :     3.729648  s :     3.729648
      pz      :     1.637874  p :     4.490616
      px      :     1.248092
      py      :     1.604650
      dz2     :     0.002382  d :     0.016382
      dxz     :     0.004675
      dyz     :     0.002410
      dx2y2   :     0.003133
      dxy     :     0.003781

  6 C s       :     3.126299  s :     3.126299
      pz      :     1.006183  p :     2.932119
      px      :     0.827670
      py      :     1.098265
      dz2     :     0.011309  d :     0.051265
      dxz     :     0.012927
      dyz     :     0.004889
      dx2y2   :     0.010077
      dxy     :     0.012063

  7 H s       :     0.892903  s :     0.892903

  8 H s       :     0.902501  s :     0.902501

  9 H s       :     0.884460  s :     0.884460

 10 H s       :     0.892790  s :     0.892790

 11 H s       :     0.911610  s :     0.911610

 12 H s       :     0.883450  s :     0.883450

 13 H s       :     0.903935  s :     0.903935

 14 H s       :     0.881273  s :     0.881273

 15 H s       :     0.878722  s :     0.878722

 16 H s       :     0.880714  s :     0.880714


------------------------
MULLIKEN OVERLAP CHARGES
------------------------
B(  0-C ,  1-C ) :   0.8988 B(  0-C ,  2-C ) :  -0.1262 B(  0-C ,  7-H ) :   0.7323 
B(  0-C ,  8-H ) :   0.7543 B(  0-C ,  9-H ) :   0.7577 B(  0-C , 11-H ) :  -0.0539 
B(  1-C ,  2-C ) :   0.7417 B(  1-C ,  3-C ) :  -0.0504 B(  1-C ,  8-H ) :  -0.0596 
B(  1-C , 10-H ) :   0.6923 B(  1-C , 11-H ) :   0.7146 B(  2-C ,  3-C ) :   0.5536 
B(  2-C ,  4-O ) :  -0.2150 B(  2-C ,  5-O ) :  -0.2545 B(  2-C , 12-H ) :   0.6067 
B(  2-C , 13-H ) :   0.6193 B(  3-C ,  4-O ) :   1.3569 B(  3-C ,  5-O ) :   0.7534 
B(  3-C ,  6-C ) :  -0.0677 B(  4-O ,  5-O ) :  -0.1743 B(  5-O ,  6-C ) :   0.5439 
B(  5-O , 14-H ) :  -0.0602 B(  5-O , 15-H ) :  -0.0518 B(  5-O , 16-H ) :  -0.0599 
B(  6-C , 14-H ) :   0.7654 B(  6-C , 15-H ) :   0.7606 B(  6-C , 16-H ) :   0.7685 
B(  8-H ,  9-H ) :  -0.0514 B( 10-H , 11-H ) :  -0.0579 B( 14-H , 16-H ) :  -0.0633 



                     *******************************
                     * LOEWDIN POPULATION ANALYSIS *
                     *******************************

----------------------
LOEWDIN ATOMIC CHARGES
----------------------
   0 C :   -0.342541
   1 C :   -0.229337
   2 C :   -0.248798
   3 C :    0.035057
   4 O :   -0.169843
   5 O :   -0.074500
   6 C :   -0.203792
   7 H :    0.121522
   8 H :    0.116212
   9 H :    0.120828
  10 H :    0.125303
  11 H :    0.117629
  12 H :    0.144321
  13 H :    0.128529
  14 H :    0.119474
  15 H :    0.120404
  16 H :    0.119531

-------------------------------
LOEWDIN REDUCED ORBITAL CHARGES
-------------------------------
  0 C s       :     2.944817  s :     2.944817
      pz      :     1.110110  p :     3.326949
      px      :     1.125605
      py      :     1.091234
      dz2     :     0.003451  d :     0.070774
      dxz     :     0.022363
      dyz     :     0.020032
      dx2y2   :     0.021046
      dxy     :     0.003881

  1 C s       :     2.905821  s :     2.905821
      pz      :     1.082365  p :     3.234811
      px      :     1.055360
      py      :     1.097087
      dz2     :     0.006520  d :     0.088704
      dxz     :     0.025974
      dyz     :     0.024256
      dx2y2   :     0.024212
      dxy     :     0.007743

  2 C s       :     2.916557  s :     2.916557
      pz      :     1.084880  p :     3.247796
      px      :     1.057109
      py      :     1.105807
      dz2     :     0.005536  d :     0.084445
      dxz     :     0.023461
      dyz     :     0.024718
      dx2y2   :     0.023935
      dxy     :     0.006794

  3 C s       :     2.849921  s :     2.849921
      pz      :     0.972944  p :     2.818810
      px      :     0.949523
      py      :     0.896343
      dz2     :     0.057171  d :     0.296212
      dxz     :     0.079608
      dyz     :     0.049612
      dx2y2   :     0.047229
      dxy     :     0.062592

  4 O s       :     3.550950  s :     3.550950
      pz      :     1.439212  p :     4.587915
      px      :     1.689828
      py      :     1.458875
      dz2     :     0.008410  d :     0.030978
      dxz     :     0.004346
      dyz     :     0.012370
      dx2y2   :     0.003328
      dxy     :     0.002524

  5 O s       :     3.452436  s :     3.452436
      pz      :     1.654710  p :     4.588941
      px      :     1.310661
      py      :     1.623570
      dz2     :     0.004126  d :     0.033122
      dxz     :     0.009455
      dyz     :     0.003770
      dx2y2   :     0.006668
      dxy     :     0.009104

  6 C s       :     2.966133  s :     2.966133
      pz      :     1.075401  p :     3.124555
      px      :     0.896857
      py      :     1.152296
      dz2     :     0.026435  d :     0.113105
      dxz     :     0.027973
      dyz     :     0.010528
      dx2y2   :     0.021087
      dxy     :     0.027082

  7 H s       :     0.878478  s :     0.878478

  8 H s       :     0.883788  s :     0.883788

  9 H s       :     0.879172  s :     0.879172

 10 H s       :     0.874697  s :     0.874697

 11 H s       :     0.882371  s :     0.882371

 12 H s       :     0.855679  s :     0.855679

 13 H s       :     0.871471  s :     0.871471

 14 H s       :     0.880526  s :     0.880526

 15 H s       :     0.879596  s :     0.879596

 16 H s       :     0.880469  s :     0.880469


---------------------------------
LOEWDIN BOND ORDERS (THRESH 0.050000)
---------------------------------
B(  0-C ,  1-C ) :   1.1324 B(  0-C ,  2-C ) :   0.0535 B(  0-C ,  7-H ) :   0.9394 
B(  0-C ,  8-H ) :   0.9408 B(  0-C ,  9-H ) :   0.9375 B(  1-C ,  2-C ) :   1.0826 
B(  1-C ,  3-C ) :   0.0602 B(  1-C , 10-H ) :   0.9019 B(  1-C , 11-H ) :   0.9061 
B(  2-C ,  3-C ) :   1.0591 B(  2-C ,  4-O ) :   0.0949 B(  2-C ,  5-O ) :   0.0737 
B(  2-C , 12-H ) :   0.8795 B(  2-C , 13-H ) :   0.8948 B(  3-C ,  4-O ) :   2.2016 
B(  3-C ,  5-O ) :   1.4021 B(  3-C ,  6-C ) :   0.0784 B(  4-O ,  5-O ) :   0.2087 
B(  5-O ,  6-C ) :   1.1086 B(  6-C , 14-H ) :   0.9461 B(  6-C , 15-H ) :   0.9527 
B(  6-C , 16-H ) :   0.9461 

------------------------------------------
LOEWDIN REDUCED ORBITAL POPULATIONS PER MO
-------------------------------------------
THRESHOLD FOR PRINTING IS 0.1%%
                      0         1         2         3         4         5   
                 -18.79982 -18.73296 -10.00502  -9.94195  -9.89722  -9.88908
                   2.00000   2.00000   2.00000   2.00000   2.00000   2.00000
                  --------  --------  --------  --------  --------  --------
 1 C  s               0.0       0.0       0.0       0.0       0.0      99.6
 2 C  s               0.0       0.0       0.0       0.0      99.6       0.0
 3 C  s               0.0       0.0      99.3       0.0       0.0       0.0
 4 O  s               0.0      99.9       0.0       0.0       0.0       0.0
 4 O  pz              0.0       0.0       0.2       0.0       0.0       0.0
 4 O  py              0.0       0.0       0.1       0.0       0.0       0.0
 5 O  s              99.9       0.0       0.0       0.0       0.0       0.0
 6 C  s               0.0       0.0       0.0      99.7       0.0       0.0

                      6         7         8         9        10        11   
                  -9.87545  -1.00543  -0.90942  -0.72425  -0.67177  -0.61951
                   2.00000   2.00000   2.00000   2.00000   2.00000   2.00000
                  --------  --------  --------  --------  --------  --------
 0 C  s              99.7       0.0       0.0       8.8       9.4      18.4
 0 C  pz              0.0       0.0       0.0       0.9       0.2       0.1
 0 C  px              0.0       0.0       0.0       0.1       0.0       0.1
 0 C  py              0.0       0.0       0.0       1.4       0.5       0.0
 1 C  s               0.0       0.1       0.1      20.0       7.5       0.3
 1 C  pz              0.0       0.0       0.0       0.1       0.5       4.5
 1 C  px              0.0       0.1       0.1       1.4       0.3       3.5
 1 C  py              0.1       0.0       0.0       0.5       0.6       2.6
 1 C  dx2y2           0.0       0.0       0.0       0.0       0.0       0.2
 2 C  s               0.0       1.0       0.3      22.3       0.3      14.6
 2 C  pz              0.0       0.5       0.4       1.0       0.2       0.4
 2 C  px              0.0       1.3       0.1       0.4       4.7       0.2
 2 C  py              0.0       0.0       0.1       0.0       0.0       0.3
 2 C  dxz             0.0       0.0       0.0       0.0       0.1       0.0
 3 C  s               0.0      18.4       5.2       2.8       4.2       0.4
 3 C  pz              0.0       0.2      11.8       4.4       3.2       1.2
 3 C  px              0.0       4.6       1.2       4.8       0.3       5.6
 3 C  py              0.0       0.6      11.1       0.7       1.8       0.6
 3 C  dz2             0.0       0.0       0.6       0.0       0.0       0.0
 3 C  dxz             0.0       0.0       0.2       0.0       0.0       0.2
 3 C  dyz             0.0       0.6       0.7       0.0       0.0       0.0
 3 C  dx2y2           0.0       0.0       0.2       0.1       0.0       0.0
 3 C  dxy             0.0       0.4       0.4       0.0       0.1       0.1
 4 O  s               0.0      11.1      41.7       1.6       0.6       0.1
 4 O  pz              0.0       1.6       2.9       0.1       0.2       0.0
 4 O  px              0.0       0.0       0.1       0.1       0.0       0.2
 4 O  py              0.0       1.1       1.5       0.0       0.1       0.1
 4 O  dyz             0.0       0.1       0.1       0.0       0.0       0.0
 5 O  s               0.0      41.7      15.5       0.1       0.2       1.1
 5 O  pz              0.0       1.6       0.1       0.3       0.8       0.0
 5 O  px              0.0       0.1       0.4       3.5      18.1       2.9
 5 O  py              0.0       1.5       0.1       0.2       2.0       0.5
 5 O  dxz             0.0       0.0       0.0       0.0       0.1       0.0
 6 C  s               0.0       4.8       2.3       2.4      20.4       9.7
 6 C  pz              0.0       1.0       0.7       0.0       0.1       0.0
 6 C  px              0.0       4.6       1.1       0.1       0.2       0.7
 6 C  dxz             0.0       0.3       0.1       0.0       0.0       0.0
 6 C  dx2y2           0.0       0.2       0.1       0.0       0.0       0.0
 7 H  s               0.1       0.0       0.0       1.4       2.0       5.2
 8 H  s               0.1       0.0       0.0       1.7       1.9       4.5
 9 H  s               0.1       0.0       0.0       1.7       1.8       4.5
10 H  s               0.0       0.0       0.1       3.4       1.5       0.1
11 H  s               0.0       0.0       0.0       3.5       1.6       0.1
12 H  s               0.0       0.1       0.1       4.1       0.1       4.9
13 H  s               0.0       0.2       0.0       4.4       0.2       3.2
14 H  s               0.0       0.6       0.2       0.4       4.3       2.6
15 H  s               0.0       0.5       0.3       0.5       5.3       3.4
16 H  s               0.0       0.6       0.2       0.4       4.3       2.6

                     12        13        14        15        16        17   
                  -0.53933  -0.49898  -0.45014  -0.44050  -0.41894  -0.40338
                   2.00000   2.00000   2.00000   2.00000   2.00000   2.00000
                  --------  --------  --------  --------  --------  --------
 0 C  s               8.6       1.1       0.2       0.2       0.1       0.2
 0 C  pz              1.8       0.4       0.8       1.2       1.8       4.4
 0 C  px              0.0       0.0       1.0       1.5       1.0       8.8
 0 C  py              5.0       2.2       2.2       0.2       0.1       0.0
 0 C  dyz             0.1       0.0       0.0       0.0       0.0       0.0
 1 C  s              13.0       3.5       0.2       0.0       0.2       0.1
 1 C  pz              1.1       0.1       8.5       1.3       0.4       0.0
 1 C  px              0.8       1.7       1.2       1.2       3.9       5.6
 1 C  py              4.7       0.9       1.5       2.4       0.8       5.8
 2 C  s               0.6       2.3       1.8       0.2       0.3       0.0
 2 C  pz              0.2       1.5      19.2       0.0       1.0       5.9
 2 C  px              9.6       0.1       4.1       2.3       0.2       1.3
 2 C  py              0.6       0.0       0.3       9.7       5.5      11.5
 2 C  dxz             0.2       0.0       0.1       0.0       0.0       0.0
 2 C  dx2y2           0.0       0.1       0.2       0.0       0.0       0.0
 3 C  s               2.3       1.7       2.1       0.4       0.5       0.0
 3 C  pz              1.8       0.3       0.0       6.9       1.3       0.4
 3 C  px              1.3       3.5      11.8       0.5       0.1       0.1
 3 C  py              0.1       2.3       0.5       9.9       0.6       0.2
 3 C  dxz             0.0       0.0       0.0       0.0       0.1       0.0
 3 C  dyz             0.0       0.0       0.0       0.0       0.4       0.0
 3 C  dx2y2           0.0       0.0       0.0       0.0       0.2       0.1
 4 O  s               0.5       1.2       1.0       0.4       7.5       0.2
 4 O  pz              0.3       0.2       0.5       4.1       5.9       0.1
 4 O  px              0.0       0.9       6.7       0.0       0.0       0.0
 4 O  py              0.1       1.0       0.4       2.2       5.1       0.5
 5 O  s               2.1       3.6       0.4       0.0       1.4       0.1
 5 O  pz              0.1       2.1       0.7       9.0      17.4       0.7
 5 O  px              1.8      15.3       0.2       2.8       4.8       1.9
 5 O  py              0.5       8.3       6.2      10.0       2.1       3.6
 6 C  s               4.5       3.7       0.1       0.0       0.3       0.0
 6 C  pz              1.5      10.4       0.7       7.8       3.2       5.9
 6 C  px              3.7       6.5       0.3       2.8      12.5       0.8
 6 C  py              0.0       1.8       6.5       6.6       3.8      12.3
 6 C  dxz             0.2       0.5       0.0       0.0       0.1       0.0
 6 C  dx2y2           0.1       0.2       0.0       0.1       0.1       0.0
 7 H  s               3.4       0.4       0.2       1.2       0.0       6.2
 8 H  s               4.2       1.0       1.6       0.1       0.0       0.1
 9 H  s               4.4       0.8       0.3       0.0       1.3       0.1
10 H  s               5.5       2.0       3.1       1.3       0.1       1.1
11 H  s               6.8       2.2       1.1       0.1       1.9       1.2
12 H  s               0.1       1.9       4.6       1.5       1.3       8.0
13 H  s               0.7       1.6       5.6       3.2       2.1       0.7
14 H  s               2.7       5.6       1.2       3.6       0.1       5.4
15 H  s               2.1       0.5       2.3       0.1       9.3       0.3
16 H  s               2.6       5.8       0.0       4.7       0.6       5.2

                     18        19        20        21        22        23   
                  -0.38948  -0.36122  -0.35608  -0.34081  -0.31077  -0.29837
                   2.00000   2.00000   2.00000   2.00000   2.00000   2.00000
                  --------  --------  --------  --------  --------  --------
 0 C  s               0.0       0.1       0.0       0.1       0.1       0.2
 0 C  pz              8.6       1.4      11.4       0.9       4.3       9.5
 0 C  px              4.7      12.4       1.3       5.5       8.4       8.3
 0 C  py              1.8       3.8      10.8       8.1       1.4       2.2
 0 C  dxz             0.0       0.2       0.0       0.0       0.4       0.3
 0 C  dyz             0.0       0.0       0.1       0.1       0.0       0.0
 0 C  dx2y2           0.0       0.0       0.1       0.0       0.0       0.3
 1 C  s               0.0       0.0       0.0       0.3       0.0       0.0
 1 C  pz              5.9       1.7       3.0       4.8       2.4       6.7
 1 C  px              5.1       5.2       0.9       0.1       5.1      10.0
 1 C  py              2.9       1.8       0.1       5.1       2.1       2.4
 1 C  dz2             0.0       0.0       0.1       0.0       0.0       0.0
 1 C  dxz             0.0       0.0       0.0       0.0       0.3       0.2
 1 C  dyz             0.0       0.0       0.0       0.0       0.0       0.1
 1 C  dx2y2           0.0       0.0       0.0       0.1       0.0       0.3
 2 C  s               0.2       0.0       0.3       0.0       0.7       0.5
 2 C  pz              0.2       0.6       6.7       0.8       1.6       7.7
 2 C  px              0.1       9.0       0.0       0.4       0.1      10.2
 2 C  py              0.0       5.1       7.2       1.9       1.2       4.2
 2 C  dxz             0.1       0.2       0.0       0.1       0.0       0.1
 2 C  dyz             0.0       0.1       0.1       0.0       0.1       0.3
 2 C  dx2y2           0.0       0.0       0.2       0.0       0.0       0.1
 2 C  dxy             0.0       0.0       0.0       0.1       0.0       0.0
 3 C  s               3.1       0.2       0.1       0.0       0.0       0.1
 3 C  pz              1.6       1.4       4.1       4.5       1.0       0.2
 3 C  px              0.1       6.2       0.6       3.9       0.5       0.4
 3 C  py              1.8       0.1       1.6       8.2       2.3       1.1
 3 C  dz2             0.0       0.0       0.1       0.1       0.1       0.2
 3 C  dyz             0.0       0.0       0.0       0.0       0.2       0.1
 3 C  dx2y2           0.0       0.0       0.0       0.0       0.3       0.0
 3 C  dxy             0.0       0.0       0.1       0.2       0.0       0.0
 4 O  s               8.0       0.4       1.5       0.1       1.0       0.0
 4 O  pz             19.9       0.6       1.2       8.1       6.6       3.0
 4 O  px              0.5       1.2       0.1       4.4       1.9       0.6
 4 O  py              7.2       1.9      10.6       6.2       0.8       2.8
 4 O  dz2             0.1       0.0       0.0       0.1       0.0       0.0
 4 O  dyz             0.2       0.0       0.1       0.0       0.0       0.0
 5 O  s               0.2       0.0       0.5       0.1       1.9       0.2
 5 O  pz              0.3       0.0       1.0       0.6      13.2       2.6
 5 O  px              0.3       2.5       0.1       0.9       0.1       0.0
 5 O  py              0.0       0.5       0.0       2.6       5.7       0.8
 6 C  pz              1.5       3.1       5.0       2.6       4.9       1.1
 6 C  px              0.1       6.2       0.8       1.5       0.1       0.0
 6 C  py              4.4       6.8       0.0       8.8       2.5       0.5
 6 C  dz2             0.0       0.0       0.1       0.2       0.1       0.1
 6 C  dxz             0.0       0.1       0.0       0.0       0.0       0.0
 6 C  dxy             0.0       0.2       0.0       0.1       0.3       0.0
 7 H  s               0.0       2.8       4.2       3.0       1.9      11.1
 8 H  s               3.1       0.5      10.9       1.6       0.1       0.5
 9 H  s               5.0       6.8       0.5       0.3       8.8       0.3
10 H  s               3.7       0.0       0.4       0.0       0.0       0.0
11 H  s               4.3       0.3       0.1       1.3       6.6       0.5
12 H  s               0.4       2.7       0.0       0.2       0.4       8.3
13 H  s               0.1       1.4       8.8       1.3       1.5       0.3
14 H  s               1.6       1.1       0.0       6.4       1.5       0.4
15 H  s               2.2       9.6       1.6       0.2       4.4       0.0
16 H  s               0.3       1.1       3.0       3.7       2.4       1.1

                     24        25        26        27        28        29   
                  -0.29668  -0.29356  -0.25870  -0.21915  -0.02062   0.04020
                   2.00000   2.00000   2.00000   2.00000   0.00000   0.00000
                  --------  --------  --------  --------  --------  --------
 0 C  s               0.3       0.1       0.0       0.0       0.1       8.0
 0 C  pz              0.8       7.0       0.0       0.0       0.2       0.4
 0 C  px              0.0       2.9       0.1       0.0       0.2       0.0
 0 C  py             14.7       0.1       0.0       0.1       0.0       1.6
 0 C  dxz             0.0       0.2       0.0       0.0       0.0       0.0
 0 C  dyz             0.4       0.0       0.0       0.0       0.0       0.1
 0 C  dx2y2           0.2       0.2       0.0       0.0       0.0       0.1
 1 C  s               0.1       0.0       0.0       0.1       1.3       4.1
 1 C  pz              3.7       9.1       0.0       0.0       0.6       0.0
 1 C  px              0.4       6.0       0.0       0.1       0.6       1.4
 1 C  py             20.2       0.0       0.0       0.2       0.1       0.8
 1 C  dxz             0.0       0.3       0.0       0.0       0.0       0.1
 1 C  dyz             0.8       0.0       0.0       0.0       0.0       0.1
 1 C  dx2y2           0.2       0.3       0.0       0.0       0.0       0.0
 2 C  s               0.0       0.0       0.0       0.6       0.1       4.8
 2 C  pz              0.7       2.1       0.1       3.5       0.2       2.0
 2 C  px              3.0       2.5       0.0       3.1       0.3       0.2
 2 C  py              6.8       0.6       0.0       0.2       0.1       0.0
 2 C  dz2             0.0       0.1       0.0       0.0       0.3       0.0
 2 C  dxz             0.0       0.2       0.0       0.0       0.3       0.0
 2 C  dyz             0.4       0.0       0.0       0.0       0.7       0.0
 2 C  dx2y2           0.1       0.2       0.0       0.0       0.4       0.1
 2 C  dxy             0.1       0.0       0.0       0.0       0.3       0.1
 3 C  s               0.0       1.1       0.0       0.4       0.0       1.9
 3 C  pz              0.2       3.5       0.2       0.3      16.1       0.8
 3 C  px              0.1       1.1       0.1       0.8       5.8       0.7
 3 C  py              0.0       0.6       0.3       0.4      24.1       1.3
 3 C  dz2             0.0       0.1       1.1       0.3       0.7       0.1
 3 C  dxz             0.1       0.1       0.4       2.3       0.0       0.2
 3 C  dyz             0.0       0.2       0.0       0.2       0.1       0.6
 3 C  dx2y2           0.0       0.2       0.9       0.2       0.0       0.0
 3 C  dxy             0.1       0.0       0.0       1.6       0.4       0.0
 4 O  s               0.0       0.8       0.0       0.0       0.0       1.0
 4 O  pz              0.1       2.8      12.1       1.4       8.6       0.4
 4 O  px              0.3       0.0       4.8      62.5       3.3       0.1
 4 O  py              0.2       3.8      18.6       8.9      13.6       0.0
 4 O  dz2             0.0       0.0       0.0       0.0       0.4       0.0
 5 O  s               1.0       2.4       0.0       0.3       0.0       0.8
 5 O  pz              2.0       9.1      17.1       3.9       3.8       0.1
 5 O  px              0.9       1.7       6.0       0.9       1.3       0.1
 5 O  py              1.5       6.0      24.6       4.2       5.1       0.1
 5 O  dxz             0.0       0.0       0.0       0.0       0.2       0.0
 5 O  dx2y2           0.0       0.0       0.0       0.0       0.2       0.0
 6 C  s               0.0       0.2       0.0       0.2       0.0       4.9
 6 C  pz              0.6       2.2       1.3       0.1       0.1       1.0
 6 C  px              0.5       1.1       0.4       0.8       0.0       2.1
 6 C  py              0.4       1.1       1.8       0.1       0.1       0.0
 6 C  dz2             0.0       0.0       0.6       0.0       0.3       0.0
 6 C  dxz             0.0       0.0       0.0       0.0       0.0       0.1
 6 C  dyz             0.0       0.0       0.1       0.0       0.1       0.0
 6 C  dx2y2           0.0       0.0       0.0       0.0       0.0       0.1
 6 C  dxy             0.1       0.2       0.3       0.0       0.1       0.0
 7 H  s               0.9       0.0       0.0       0.0       0.1       6.1
 8 H  s              10.1       2.1       0.0       0.0       0.0       7.5
 9 H  s               0.2       7.2       0.1       0.0       0.1       6.0
10 H  s              17.8       3.0       0.0       0.3       0.0       3.4
11 H  s               0.1      12.1       0.0       0.2       0.8       6.8
12 H  s               2.3       1.8       0.0       0.1       6.0       6.7
13 H  s               6.8       0.4       0.0       1.0       0.4       8.5
14 H  s               0.6       1.3       4.3       0.1       0.7       5.3
15 H  s               0.3       0.9       0.0       0.1       0.0       3.7
16 H  s               0.1       0.6       4.4       0.2       1.0       5.6

                     30        31        32        33        34        35   
                   0.06035   0.07927   0.08309   0.08659   0.10186   0.11131
                   0.00000   0.00000   0.00000   0.00000   0.00000   0.00000
                  --------  --------  --------  --------  --------  --------
 0 C  s               1.0       7.1       5.8       0.2       0.4       1.4
 0 C  pz              0.2       0.1       4.0       0.6       0.7       1.0
 0 C  px              1.3       0.3       0.1       1.9       1.9       2.8
 0 C  py              0.6       2.1       0.2       1.9       0.2       0.4
 0 C  dz2             0.0       0.0       0.0       0.0       0.0       0.1
 0 C  dxz             0.1       0.2       0.0       0.1       0.0       0.1
 0 C  dx2y2           0.0       0.1       0.1       0.1       0.0       0.2
 1 C  s               2.4       0.0       0.0       4.0       0.6       0.6
 1 C  pz              0.3       1.0       1.9       0.1       0.1       2.3
 1 C  px              1.5       0.8       0.5       0.5       0.1       0.5
 1 C  py              0.2       0.2       1.6       1.4       0.6       0.6
 1 C  dz2             0.0       0.0       0.0       0.1       0.0       0.2
 1 C  dxz             0.1       0.1       0.2       0.0       0.0       0.0
 1 C  dyz             0.0       0.0       0.6       0.1       0.0       0.0
 1 C  dx2y2           0.0       0.5       0.1       0.0       0.0       0.2
 1 C  dxy             0.0       0.1       0.0       0.3       0.0       0.1
 2 C  s               1.5       5.1       1.4       1.5       1.5       1.1
 2 C  pz              1.6       0.4       3.1       0.1       0.9       1.9
 2 C  px              0.0       0.3       0.4       0.3       0.1       0.1
 2 C  py              0.0       5.8       1.2       4.5       0.1       0.2
 2 C  dz2             0.0       0.0       0.1       0.0       0.0       0.1
 2 C  dyz             0.0       0.3       0.2       0.2       0.0       0.1
 2 C  dx2y2           0.1       0.1       0.3       0.1       0.0       0.1
 2 C  dxy             0.0       0.0       0.1       0.1       0.0       0.0
 3 C  s               0.3       0.6       1.1       0.2       0.5       0.1
 3 C  pz              0.1       0.5       0.5       0.1       0.0       0.3
 3 C  px              0.1       1.2       0.5       0.2       0.0       0.0
 3 C  py              0.2       0.4       0.3       0.6       0.1       0.9
 3 C  dz2             0.0       0.1       0.2       0.0       0.0       0.2
 3 C  dxz             0.0       0.2       0.0       0.1       0.1       0.1
 3 C  dyz             0.0       0.0       0.0       0.0       0.2       0.1
 3 C  dx2y2           0.0       0.2       0.3       0.2       0.0       0.0
 3 C  dxy             0.0       0.5       0.3       0.0       0.0       0.1
 4 O  s               0.1       0.0       0.1       0.0       0.0       0.1
 4 O  pz              0.2       0.1       0.1       0.1       0.2       0.1
 4 O  px              0.6       0.5       0.1       0.1       0.1       0.5
 4 O  py              0.4       0.1       0.0       0.4       0.0       0.0
 5 O  s               0.4       4.2       1.3       5.2       0.3       0.7
 5 O  pz              0.1       0.9       0.6       1.6       0.9       0.9
 5 O  px              0.3       1.3       0.4       3.5       1.6       0.2
 5 O  py              0.0       0.2       0.4       0.1       0.0       0.3
 5 O  dxz             0.1       0.1       0.0       0.2       0.2       0.0
 5 O  dx2y2           0.0       0.1       0.1       0.3       0.0       0.0
 5 O  dxy             0.0       0.1       0.1       0.0       0.1       0.1
 6 C  s              16.2       1.2       3.1       5.0       0.2       0.0
 6 C  pz              1.6       2.2       4.3       5.0       3.9       1.0
 6 C  px              3.2      10.2       1.7      12.7       9.3       6.3
 6 C  py              0.1       0.5       0.6       0.9      10.0      10.1
 6 C  dz2             0.0       0.0       0.1       0.2       0.0       0.2
 6 C  dxz             0.1       0.8       0.2       1.7       0.7       0.1
 6 C  dyz             0.0       0.0       0.1       0.0       0.5       0.0
 6 C  dx2y2           0.1       1.0       0.2       1.0       0.2       0.9
 6 C  dxy             0.0       0.0       0.2       0.0       0.4       0.2
 7 H  s               2.9       2.3       8.3       3.6       6.6       4.6
 8 H  s               3.3      13.1       0.3       5.9       0.4       5.3
 9 H  s               1.0       4.1      13.4       1.6       0.2       3.0
10 H  s               0.9       1.3       6.7       7.3       3.1       6.7
11 H  s               8.3       0.0       4.6       6.3       0.5       2.1
12 H  s               2.7      23.6       1.0       1.0       3.4       2.7
13 H  s               2.9       0.7      11.7      12.5       2.1       3.5
14 H  s              12.5       1.3       0.6       4.1       8.4      24.9
15 H  s              13.4       0.1      13.6       0.3      32.4       0.7
16 H  s              16.9       1.3       1.0       0.2       5.8       8.4

                     36        37        38        39        40        41   
                   0.11748   0.12275   0.13646   0.14272   0.19082   0.20150
                   0.00000   0.00000   0.00000   0.00000   0.00000   0.00000
                  --------  --------  --------  --------  --------  --------
 0 C  s               3.7       0.2       1.6       0.3       1.2       0.4
 0 C  pz              0.3       0.1       6.8       7.2       6.8       1.3
 0 C  px              0.6       5.6       5.6       7.2       1.3       0.3
 0 C  py              1.0       1.3       1.1       3.1       7.9       6.0
 0 C  dz2             0.0       0.3       0.0       0.2       0.3       0.0
 0 C  dxz             0.1       0.5       0.1       0.5       0.1       0.0
 0 C  dyz             0.5       0.1       0.0       0.3       2.3       1.2
 0 C  dx2y2           0.0       0.0       1.0       0.2       0.9       0.5
 0 C  dxy             0.1       0.1       0.2       0.2       1.0       0.2
 1 C  s               8.7       3.8       0.4       0.5       6.8       0.2
 1 C  pz              0.9       3.0       1.8       3.6       0.4       6.4
 1 C  px              4.2       2.1       0.3       3.1       7.9       9.7
 1 C  py              0.0       1.7       1.1       0.8      16.5       3.0
 1 C  dz2             0.2       0.0       0.4       0.3       0.2       0.8
 1 C  dxz             0.0       0.4       0.0       0.2       2.9       1.1
 1 C  dyz             0.1       0.1       0.4       0.0       1.9       0.5
 1 C  dx2y2           0.0       0.0       0.4       0.1       0.0       2.7
 1 C  dxy             0.2       0.4       0.1       0.3       0.2       0.0
 2 C  s               1.6       0.1       0.7       0.0       2.3       4.8
 2 C  pz              2.5       0.0       0.5       0.1       4.2      14.7
 2 C  px              0.7       1.2       0.2       1.4       8.9       0.4
 2 C  py              1.5       0.7      10.8       0.2       1.1       0.0
 2 C  dz2             0.1       0.1       0.0       0.4       0.3       0.0
 2 C  dxz             0.2       0.7       0.0       0.5       2.0       0.0
 2 C  dyz             0.2       0.0       0.4       0.1       0.0       0.0
 2 C  dx2y2           0.0       0.0       0.2       0.0       1.0       3.8
 2 C  dxy             0.0       0.0       0.0       0.0       0.2       0.1
 3 C  s               0.3       0.4       0.1       1.1       1.0      11.5
 3 C  pz              0.5       0.5       0.5       0.8       1.3       0.9
 3 C  px              0.3       0.7       0.1       0.3       0.2       0.6
 3 C  py              0.0       0.6       0.2       0.2       1.9       1.3
 3 C  dz2             0.0       0.0       0.0       0.0       0.2       0.3
 3 C  dxz             0.0       0.0       0.0       0.0       0.1       0.2
 3 C  dyz             0.0       0.1       0.1       0.0       0.1       1.8
 3 C  dx2y2           0.0       0.1       0.0       0.1       0.0       0.5
 3 C  dxy             0.0       0.0       0.3       0.0       0.1       1.0
 4 O  s               0.0       0.4       0.0       0.1       0.0       0.5
 4 O  pz              0.1       0.0       0.0       0.0       0.9       0.1
 4 O  px              0.1       0.7       0.1       0.0       0.6       0.2
 4 O  py              0.0       0.1       0.1       0.2       0.1       0.8
 4 O  dz2             0.0       0.0       0.0       0.0       0.1       0.0
 5 O  s               0.6       0.1       0.0       0.1       0.0       0.4
 5 O  pz              0.2       0.5       0.0       0.0       0.2       0.0
 5 O  px              1.5       0.3       0.0       0.0       0.0       6.1
 5 O  py              0.0       0.4       0.8       0.0       0.2       1.3
 5 O  dxz             0.0       0.0       0.0       0.0       0.0       0.2
 5 O  dxy             0.0       0.0       0.0       0.0       0.0       0.2
 6 C  s               0.2       0.1       0.0       0.2       0.0       0.1
 6 C  pz              6.2       6.1       0.2       2.3       0.2       1.6
 6 C  px              2.0       0.5       0.0       0.0       0.1       2.4
 6 C  py              0.0       3.3       1.5       0.2       0.1       0.2
 6 C  dz2             0.2       0.3       0.0       0.2       0.0       0.0
 6 C  dxz             0.5       0.1       0.0       0.0       0.0       0.7
 6 C  dx2y2           0.2       0.0       0.0       0.0       0.0       0.4
 7 H  s               7.2      12.0      13.4       0.5       0.3       1.5
 8 H  s               0.8       0.5      14.2      13.1       0.6       0.7
 9 H  s               1.2       3.4       1.9      25.5       0.9       0.0
10 H  s               2.6      18.8       0.7       9.8       6.0       0.9
11 H  s              26.3       2.5       1.5       8.4       1.8       0.0
12 H  s              12.5       1.1       7.3       0.1       0.9       2.3
13 H  s               0.4       0.8      18.9       0.4       2.9       1.2
14 H  s               0.2       6.2       2.3       0.2       0.2       0.6
15 H  s               2.0       0.2       1.6       0.1       0.1       0.7
16 H  s               6.2      16.3       0.0       4.7       0.1       0.5

                     42        43        44        45        46        47   
                   0.21446   0.26367   0.30210   0.38071   0.39795   0.40468
                   0.00000   0.00000   0.00000   0.00000   0.00000   0.00000
                  --------  --------  --------  --------  --------  --------
 0 C  s               0.4       0.1       0.0       0.9       2.1       0.1
 0 C  pz              2.0       2.4       0.0       4.2       1.7       1.1
 0 C  px              0.3       1.4       0.9      12.6       0.2       0.0
 0 C  py              7.6       0.5       2.0       0.8      29.2       0.8
 0 C  dz2             0.2       0.1       0.0       0.1       0.0       0.0
 0 C  dxz             0.0       0.4       0.0       3.2       0.7       0.0
 0 C  dyz             1.0       0.0       0.5       0.1       4.4       0.1
 0 C  dx2y2           0.9       0.0       0.0       1.3       0.0       0.5
 0 C  dxy             0.0       0.0       0.1       0.0       0.0       0.0
 1 C  s               0.2       0.0       0.6       0.3       0.4       0.4
 1 C  pz              7.2       1.1       0.2       0.1      10.4       0.1
 1 C  px              3.8       0.1       5.2       0.2       0.5       1.6
 1 C  py              4.5       0.2       0.4       0.8      10.9       2.1
 1 C  dz2             0.4       0.1       0.0       0.0       0.2       0.0
 1 C  dxz             0.4       0.0       1.2       0.8       0.0       0.5
 1 C  dyz             1.4       0.0       0.1       0.8       1.5       0.5
 1 C  dx2y2           0.8       0.8       0.1       0.0       2.9       0.0
 1 C  dxy             0.1       0.1       0.0       0.6       0.0       0.0
 2 C  s               0.4       2.8       0.1       2.4       0.8       0.7
 2 C  pz              1.8       6.4       0.5       3.7       7.1       0.4
 2 C  px             19.4       6.6       0.7       0.6       3.6       6.3
 2 C  py              0.4       0.3       1.9       3.2       0.8       0.3
 2 C  dz2             0.4       0.0       0.9       0.0       0.3       0.1
 2 C  dxz             5.2       1.7       0.0       0.0       0.5       0.1
 2 C  dyz             0.0       0.2       1.9       2.0       0.7       0.1
 2 C  dx2y2           0.2       1.4       0.3       0.2       0.5       0.0
 2 C  dxy             0.8       0.0       0.3       0.3       0.1       0.1
 3 C  s              14.3      13.8       4.3       4.8       0.6       0.6
 3 C  pz              1.6       3.6      10.1       1.7       0.1       0.4
 3 C  px              3.2      16.2       5.0       2.5       0.7       1.5
 3 C  py              1.7       0.5      14.7      10.7       0.1       1.7
 3 C  dz2             0.4       0.1       1.0       0.0       0.1       0.1
 3 C  dxz             1.2       0.1       0.5       0.7       0.0       0.1
 3 C  dyz             2.6       4.4       0.3       0.2       0.1       0.0
 3 C  dx2y2           0.1       0.1       0.4       0.2       0.0       0.6
 3 C  dxy             0.1       1.0       1.8       0.0       0.1       0.1
 4 O  s               1.4       3.3       5.6       0.1       0.2       0.3
 4 O  pz              2.1       0.6       0.3       0.1       0.5       0.0
 4 O  px              0.6       2.8       1.7       0.4       0.1       0.6
 4 O  py              0.2       1.6       0.1       0.3       0.1       0.1
 4 O  dz2             0.1       0.0       0.0       0.0       0.0       0.0
 4 O  dxz             0.1       0.4       0.2       0.0       0.0       0.0
 4 O  dyz             0.1       0.1       0.0       0.2       0.0       0.0
 4 O  dx2y2           0.0       0.1       0.0       0.1       0.0       0.0
 4 O  dxy             0.1       0.1       0.1       0.0       0.0       0.0
 5 O  s               0.1       2.3       3.3       0.5       0.0       0.5
 5 O  pz              0.2       0.6       0.1       0.2       0.2       1.1
 5 O  px              0.3       3.1       5.5       1.6       0.1       1.0
 5 O  py              0.5       2.1       0.5       1.6       0.0       2.0
 5 O  dz2             0.0       0.0       0.3       0.0       0.0       0.0
 5 O  dxz             0.1       0.6       0.1       0.7       0.1       0.8
 5 O  dyz             0.0       0.2       0.0       0.2       0.0       0.0
 5 O  dx2y2           0.0       0.4       0.1       0.0       0.0       0.7
 5 O  dxy             0.0       0.0       0.6       0.4       0.0       0.0
 6 C  s               0.1       0.7       0.0       0.8       0.3       5.9
 6 C  pz              0.2       1.2       0.0       3.7       0.6      13.1
 6 C  px              0.4       3.8       3.3       1.1       1.4      21.3
 6 C  py              0.1       0.1       1.4       0.0       0.0      11.0
 6 C  dz2             0.0       0.0       0.0       0.6       0.0       0.0
 6 C  dxz             0.0       0.0       0.8       0.0       0.0       0.0
 6 C  dyz             0.0       0.0       0.1       0.1       0.0       0.9
 6 C  dx2y2           0.0       0.0       0.0       0.0       0.0       1.1
 6 C  dxy             0.0       0.1       0.7       0.2       0.0       2.2
 7 H  s               0.9       1.0       0.4      11.2       0.2       0.9
 8 H  s               2.7       0.1       1.2       1.6       7.9       0.1
 9 H  s               1.5       2.0       0.3       1.7       1.1       0.2
10 H  s               1.3       0.8       0.6       1.8       0.0       1.6
11 H  s               0.3       1.6       3.6       0.9       1.1       0.5
12 H  s               0.1       2.7       1.6       5.2       0.5       0.4
13 H  s               1.4       0.2       7.2       1.7       3.9       0.2
14 H  s               0.5       0.4       0.2       0.0       0.1       9.2
15 H  s               0.0       0.2       3.8       0.9       0.1       2.0
16 H  s               0.1       0.1       0.1       2.0       0.0       1.2

                     48        49        50        51        52        53   
                   0.40691   0.41926   0.44222   0.46631   0.52177   0.54184
                   0.00000   0.00000   0.00000   0.00000   0.00000   0.00000
                  --------  --------  --------  --------  --------  --------
 0 C  s               0.4       0.0       0.7       0.1       0.3       0.5
 0 C  pz             13.9       6.3       0.1       1.5       7.7       0.5
 0 C  px              4.0       6.6       0.0       0.1       0.3       1.3
 0 C  py              0.4       0.3       0.6       0.4       1.1       5.8
 0 C  dz2             0.1       0.1       0.0       0.1       0.8       0.4
 0 C  dxz             1.4       1.5       0.2       0.2       0.3       0.7
 0 C  dyz             0.7       0.5       0.0       0.1       0.5       0.3
 0 C  dx2y2           3.8       0.9       0.1       0.0       0.1       0.0
 0 C  dxy             0.0       0.0       0.1       0.0       0.0       0.3
 1 C  s               0.2       0.0       0.3       0.1       3.3       2.8
 1 C  pz              1.1       0.3       0.8       1.3       8.3       0.4
 1 C  px              0.0       0.2       2.8       1.2       5.9      20.3
[...]
 1 C  pz              1.7       0.3       0.0       0.0       0.1       0.0
 1 C  px              1.4       0.2       0.0       0.0       0.1       0.0
 1 C  py              0.8       0.1       0.0       0.0       0.0       0.0
 1 C  dz2             0.1       0.1       0.0       0.0       0.1       0.1
 1 C  dxz             4.9       0.2       0.1       0.0       0.7       0.0
 1 C  dyz             7.6       0.5       0.0       0.0       0.0       0.0
 1 C  dx2y2          17.5       2.3       0.0       0.2       0.0       0.0
 1 C  dxy             0.5       0.1       0.0       0.0       0.0       0.0
 2 C  s               0.4       0.0       0.0       0.0       0.0       0.3
 2 C  pz              0.4       0.1       0.0       0.0       0.1       0.0
 2 C  px              1.8       0.7       0.0       0.0       0.1       0.2
 2 C  py              0.1       0.1       0.0       0.0       0.0       0.0
 2 C  dz2             0.0       0.1       0.1       0.0       2.0       0.3
 2 C  dxz            12.2       3.8       0.1       0.3       1.4       0.3
 2 C  dyz             0.1       0.2       0.1       0.6       0.4       0.1
 2 C  dx2y2           3.2       0.0       0.1       0.0       0.7       0.8
 2 C  dxy             0.2       0.1       0.1       0.7       0.3       0.1
 3 C  s               0.5       0.1       0.0       0.0       0.2       1.1
 3 C  pz              0.1       0.2       0.0       0.5       0.0       0.7
 3 C  px              0.4       0.4       0.0       0.4       0.1       1.3
 3 C  py              0.0       0.1       0.0       0.3       0.5       1.3
 3 C  dz2             0.0       0.0       0.0       0.0       4.1       0.3
 3 C  dxz             0.1       0.8       0.3       2.5       0.7       3.6
 3 C  dyz             0.0       1.2       0.0       2.3       0.3       1.1
 3 C  dx2y2           0.0       0.9       0.4       0.8       7.3       0.4
 3 C  dxy             0.2       0.4       0.3       7.2       0.7       0.2
 4 O  s               0.1       0.0       0.0       0.3       1.0       0.4
 4 O  pz              0.0       0.0       0.0       0.0       0.4       0.3
 4 O  px              0.0       0.0       0.0       0.2       0.1       0.4
 4 O  py              0.0       0.0       0.0       0.2       0.1       0.1
 4 O  dz2             0.0       7.5       4.4       4.7       1.7       2.1
 4 O  dxz             6.3       6.9       0.2      14.3       3.3      13.4
 4 O  dyz             0.0       9.8       1.0       0.0       1.4       0.0
 4 O  dx2y2           0.0      25.8       0.0       5.0       8.2       0.7
 4 O  dxy            17.7      24.1       2.7       0.2       1.0       8.4
 5 O  s               0.0       0.1       0.0       0.1       0.5       7.6
 5 O  pz              0.1       0.2       0.3       0.8       0.6       0.6
 5 O  px              0.0       0.1       0.1       0.0       1.4       0.1
 5 O  py              0.0       0.3       0.5       0.2       0.3       0.4
 5 O  dz2             0.9       0.8      40.9      15.2       0.7       4.4
 5 O  dxz             0.4       0.4       2.1       4.4      24.3       2.1
 5 O  dyz             0.8       7.1       8.6       9.4      23.8       9.1
 5 O  dx2y2           1.0       0.0       0.4      22.8       4.6      13.4
 5 O  dxy             0.6       0.0      25.1       3.5       0.1      19.8
 6 C  s               0.0       0.2       0.0       0.1       0.6       0.5
 6 C  pz              0.0       0.0       0.2       0.0       0.1       0.3
 6 C  px              0.0       0.2       0.1       0.1       0.6       0.6
 6 C  py              0.1       0.1       0.2       0.0       0.0       0.0
 6 C  dz2             0.0       0.2       2.6       0.0       2.0       0.0
 6 C  dxz             0.0       0.1       1.6       0.0       0.2       2.0
 6 C  dyz             0.1       0.0       1.4       0.1       0.0       0.1
 6 C  dx2y2           0.0       0.1       1.4       0.7       1.6       0.7
 6 C  dxy             0.1       1.0       4.1       0.9       1.1       0.1
 7 H  s               0.2       0.0       0.0       0.0       0.0       0.0
12 H  s               0.2       0.0       0.0       0.0       0.0       0.0
15 H  s               0.0       0.1       0.0       0.0       0.0       0.0
16 H  s               0.0       0.1       0.0       0.0       0.1       0.0

                    114       115       116       117   
                   3.11106   3.31507   3.48784   3.55134
                   0.00000   0.00000   0.00000   0.00000
                  --------  --------  --------  --------
 1 C  dxz             0.1       0.1       0.0       0.1
 2 C  s               0.0       0.2       0.1       0.0
 2 C  px              0.0       0.1       0.3       0.1
 2 C  dz2             0.0       0.2       0.3       0.1
 2 C  dxz             0.3       0.5       0.5       0.3
 2 C  dyz             0.0       0.0       0.2       0.0
 2 C  dx2y2           0.5       0.0       0.9       0.0
 2 C  dxy             0.1       0.2       0.1       0.1
 3 C  s               0.0       3.8       0.2       6.1
 3 C  pz              0.1       0.3       1.1       3.0
 3 C  px              0.0       1.3       0.6       0.1
 3 C  py              0.3       0.1       1.6       1.6
 3 C  dz2            12.7       0.9       2.0       1.3
 3 C  dxz             1.9       1.9      10.3       0.9
 3 C  dyz             0.5       0.8       0.5       7.2
 3 C  dx2y2           5.0       3.2       0.5       2.6
 3 C  dxy             0.6       0.2       8.4       0.2
 4 O  s               0.0       1.6       0.8       4.5
 4 O  pz              0.4       0.3       0.2       2.3
 4 O  px              0.1       0.1       0.5       0.3
 4 O  py              0.5       0.4       0.5       1.0
 4 O  dz2            42.0       0.6       0.1      12.7
 4 O  dxz             1.7       2.2      10.0       6.2
 4 O  dyz             3.3      11.5       8.4      30.0
 4 O  dx2y2           7.7       2.4       5.4       2.7
 4 O  dxy             6.0       1.9       4.2       3.6
 5 O  s               0.0       0.0       0.8       0.2
 5 O  px              0.0       2.1       2.6       0.0
 5 O  py              0.0       0.5       0.7       0.1
 5 O  dz2             0.0       0.7       5.9       2.6
 5 O  dxz             3.9      25.9       9.8       0.7
 5 O  dyz             1.1       7.9       0.6       1.1
 5 O  dx2y2           5.9      17.1       0.2       5.2
 5 O  dxy             4.2       2.6      19.7       2.1
 6 C  s               0.0       1.0       0.3       0.0
 6 C  pz              0.0       0.5       0.0       0.1
 6 C  px              0.0       1.3       0.3       0.1
 6 C  dz2             0.4       0.0       0.3       0.0
 6 C  dxz             0.0       3.4       0.0       0.4
 6 C  dyz             0.1       0.0       0.2       0.1
 6 C  dx2y2           0.0       2.0       0.4       0.1
 6 C  dxy             0.3       0.0       0.2       0.1


                      *****************************
                      * MAYER POPULATION ANALYSIS *
                      *****************************

  NA   - Mulliken gross atomic population
  ZA   - Total nuclear charge
  QA   - Mulliken gross atomic charge
  VA   - Mayer's total valence
  BVA  - Mayer's bonded valence
  FA   - Mayer's free valence

  ATOM       NA         ZA         QA         VA         BVA        FA
  0 C      6.2916     6.0000    -0.2916     4.0151     4.0151    -0.0000
  1 C      6.1863     6.0000    -0.1863     4.1599     4.1599    -0.0000
  2 C      6.1393     6.0000    -0.1393     3.9395     3.9395    -0.0000
  3 C      5.9127     6.0000     0.0873     4.4097     4.4097     0.0000
  4 O      8.2116     8.0000    -0.2116     2.2771     2.2771     0.0000
  5 O      8.2366     8.0000    -0.2366     2.2721     2.2721    -0.0000
  6 C      6.1097     6.0000    -0.1097     3.8836     3.8836     0.0000
  7 H      0.8929     1.0000     0.1071     0.9508     0.9508     0.0000
  8 H      0.9025     1.0000     0.0975     0.9547     0.9547    -0.0000
  9 H      0.8845     1.0000     0.1155     0.9607     0.9607    -0.0000
 10 H      0.8928     1.0000     0.1072     0.9632     0.9632     0.0000
 11 H      0.9116     1.0000     0.0884     0.9430     0.9430     0.0000
 12 H      0.8835     1.0000     0.1165     0.9501     0.9501     0.0000
 13 H      0.9039     1.0000     0.0961     0.9744     0.9744    -0.0000
 14 H      0.8813     1.0000     0.1187     0.9645     0.9645    -0.0000
 15 H      0.8787     1.0000     0.1213     0.9557     0.9557     0.0000
 16 H      0.8807     1.0000     0.1193     0.9643     0.9643     0.0000

  Mayer bond orders larger than 0.100000
B(  0-C ,  1-C ) :   1.1548 B(  0-C ,  7-H ) :   0.9527 B(  0-C ,  8-H ) :   0.9539 
B(  0-C ,  9-H ) :   0.9508 B(  1-C ,  2-C ) :   1.1139 B(  1-C , 10-H ) :   0.9171 
B(  1-C , 11-H ) :   0.9269 B(  2-C ,  3-C ) :   1.0210 B(  2-C , 12-H ) :   0.8893 
B(  2-C , 13-H ) :   0.9112 B(  3-C ,  4-O ) :   2.0450 B(  3-C ,  5-O ) :   1.2225 
B(  5-O ,  6-C ) :   0.9400 B(  6-C , 14-H ) :   0.9519 B(  6-C , 15-H ) :   0.9595 
B(  6-C , 16-H ) :   0.9522 

-------
TIMINGS
-------

Total SCF time: 0 days 0 hours 0 min 7 sec 

Total time                  ....       7.982 sec
Sum of individual times     ....       7.427 sec  ( 93.0%)

SCF preparation             ....       0.186 sec  (  2.3%)
Fock matrix formation       ....       6.317 sec  ( 79.1%)
  Startup                   ....       0.065 sec  (  1.0% of F)
  Split-RI-J                ....       1.882 sec  ( 29.8% of F)
  XC integration            ....       3.771 sec  ( 59.7% of F)
    XC Preparation          ....       0.000 sec  (  0.0% of XC)
    Basis function eval.    ....       1.180 sec  ( 31.3% of XC)
    Density eval.           ....       0.404 sec  ( 10.7% of XC)
    XC-Functional eval.     ....       0.331 sec  (  8.8% of XC)
    XC-Potential eval.      ....       0.629 sec  ( 16.7% of XC)
Diagonalization             ....       0.000 sec  (  0.0%)
Density matrix formation    ....       0.209 sec  (  2.6%)
Total Energy calculation    ....       0.043 sec  (  0.5%)
Population analysis         ....       0.071 sec  (  0.9%)
Orbital Transformation      ....       0.054 sec  (  0.7%)
Orbital Orthonormalization  ....       0.000 sec  (  0.0%)
DIIS solution               ....       0.382 sec  (  4.8%)
  MO trafo                  ....       0.000 sec  (  0.0 % of DIIS)
  Orb grad                  ....       0.000 sec  (  0.0 % of DIIS)
  Energy W gradient         ....       0.000 sec  (  0.0 % of DIIS)
  DIIS error                ....       0.004 sec  (  1.1 % of DIIS)
  DIIS work                 ....       0.331 sec  ( 86.6 % of DIIS)
  Form Q                    ....       0.000 sec  (  0.0 % of DIIS)
  Form QpQm                 ....       0.000 sec  (  0.0 % of DIIS)
  Exp/Cayley                ....       0.000 sec  (  0.0 % of DIIS)
  Orb update                ....       0.000 sec  (  0.0 % of DIIS)
  Wake-sleep                ....       0.019 sec  (  4.9 % of DIIS)
SOSCF solution              ....       0.164 sec  (  2.1%)
  MO trafo                  ....       0.062 sec  ( 37.8 % of SOSCF)
  Orb grad                  ....       0.003 sec  (  1.7 % of SOSCF)
  Rot update                ....       0.063 sec  ( 38.5 % of SOSCF)
  Step                      ....       0.036 sec  ( 21.9 % of SOSCF)
Finished LeanSCF after   8.0 sec

Maximum memory used throughout the entire LEANSCF-calculation: 11.1 MB


-------------------------------------------------------------------------------
                          DFT DISPERSION CORRECTION                            
                                                                               
                                DFTD4 V3.4.0                                   
-------------------------------------------------------------------------------
The PBE functional is recognized
Active option DFTDOPT                   ...         5   

-------------------------   ----------------
Dispersion correction           -0.012279672
-------------------------   ----------------

------------------   -----------------
gCP correction             0.076925840
------------------   -----------------

-------------------------   --------------------
FINAL SINGLE POINT ENERGY      -346.240897030978
-------------------------   --------------------


------------------------------------------------------------------------------
                              ORCA PROPERTY CALCULATIONS
------------------------------------------------------------------------------

GBWName                                 ... sp.gbw
Number of atoms                         ...     17
Number of basis functions               ...    118
Max core memory                         ...   1024 MB

Electric properties:
Dipole moment                           ... YES
Quadrupole moment                       ...  NO
Static polarizability (Dipole/Dipole)   ...  NO
Static polarizability (Dipole/Quad.)    ...  NO
Static polarizability (Quad./Quad.)     ...  NO
Static polarizability (Velocity)        ...  NO

Atomic electric properties:
Dipole moment                           ...  NO
Quadrupole moment                       ...  NO
Static polarizability                   ...  NO

Choice of electric origin               ... Center of mass
Position of electric origin             ...    -0.000023     0.000010     0.000002

General magnetic properties:
Magnetizability                         ...  NO

EPR properties:
g-Tensor (aka g-matrix)                 ...  NO
Zero-Field splitting spin-orbit         ...  NO
Zero-field splitting spin-spin          ...  NO
Hyperfine couplings                     ...  NO (   0 nuclei)
Quadrupole couplings                    ...  NO (   0 nuclei)
Contact density                         ...  NO (   0 nuclei)

NMR properties:
Chemical shifts                         ...  NO (   0 nuclei)
Spin-rotation constants                 ...  NO (   0 nuclei)
Spin-spin couplings                     ...  NO (   0 nuclei,    0 pairs)

Choice of magnetic origin               ... GIAO
Position of magnetic origin             ...     0.000000     0.000000     0.000000

Properties with geometric perturbations:
SCF Hessian                             ...  NO
IR spectrum                             ...  NO
VCD spectrum                            ...  NO
X-ray spectroscopy properties:
SCF XES/XAS/RIXS spectra                ...  NO


-------------
DIPOLE MOMENT
-------------

Method             : SCF
Type of density    : Electron Density
Multiplicity       :   1
Irrep              :   0
Energy             :  -346.3055431990304101 Eh
Relativity type    : 
Basis              : AO
                                X                 Y                 Z
Electronic contribution:      4.634526969      -2.493908492       0.551712154
Nuclear contribution   :     -4.432651897       2.935505787      -0.121307426
                        -----------------------------------------
Total Dipole Moment    :      0.201875072       0.441597295       0.430404729
                        -----------------------------------------
Magnitude (a.u.)       :      0.648852792
Magnitude (Debye)      :      1.649252730



--------------------
Rotational spectrum 
--------------------
 
Rotational constants in cm-1:             0.176815             0.048991             0.048246 
Rotational constants in MHz :          5300.790773          1468.701822          1446.388989 

Dipole components along the rotational axes: 
x,y,z [a.u.] :     0.209848    -0.571577     0.224217 
x,y,z [Debye]:     0.533391    -1.452834     0.569914 

 

Dipole moment calculation done in   0.0 sec 

Maximum memory used throughout the entire PROP-calculation: 7.0 MB

--------------------------------
SUGGESTED CITATIONS FOR THIS RUN
--------------------------------

Below you find a list of papers that are relevant to this ORCA run
We neither can nor want to force you to cite these papers, but we appreciate if you do
You receive ORCA, which is the product of decades of hard work by many enthusiastic individuals, for free
The only thing we kindly ask in return is that you cite our papers,
We deeply appreciate it, if you show your appreciation for ORCA by not just citing the generic ORCA reference.

Please note that relegating all ORCA citations to the supporting information does *not* help us.
SI sections are not indexed - citations you put there will not count into any citation statistics
But we need these citations in order to attract the funding resources that allow us to do what we are doing

Therefore, if you are a happy ORCA user, please consider citing a few of the papers listed below in the main body of your paper

In addition to the list printed below, the program has created the file sp.bibtex that contains the list in bibtex format
You can import this file easily into all common literature databanks and citation aid programs


List of essential papers. We consider these as the minimum necessary citations

  1. Neese,F.
     Software update: the ORCA program system, version 5.0
     WIRES Comput. Molec. Sci., 2022 12(1)e1606
     doi.org/10.1002/wcms.1606

List of papers to cite with high priority. The work reported in these papers was absolutely
necessary for this run to complete.
Our perspective: the developers of density functionals and basis sets usually get cited in chemistry papers
Good! But without the algorithms to do something with them, the functionals or basis sets would not do anything.
Hence, in our opinion, the algorithm design and method developments papers are equally worthy of getting cited

  1. Neese,F.
     An improvement of the resolution of the identity approximation for the formation of the Coulomb matrix
     J. Comp. Chem., 2003 24(14)1740-1747
     doi.org/10.1002/jcc.10318
  2. Neese,F.
     The SHARK Integral Generation and Digestion System
     J. Comp. Chem., 2022  1-16
     doi.org/10.1002/jcc.26942
  3. Caldeweyher,E.; Bannwarth,C.; Grimme,S.
     Extension of the D3 dispersion coefficient model
     J. Chem. Phys., 2017 147 034112-XXXX
     doi.org/10.1063/1.4993215
  4. Caldeweyher,E.; Ehlert,S.; Hansen,A.; Neugebauer,H.; Spicher,S.; Bannwarth,C.; Grimme,S.
     A generally applicable atomic-charge dependent London dispersion correction
     J. Chem. Phys., 2019 150 154122-XXXX
     doi.org/10.1063/1.5090222
  5. Caldeweyher,E.; Mewes,J.; Ehlert,S.; Grimme,S.
     Extension and evaluation of the D4 London-dispersion model for periodic systems
     Phys. Chem. Chem. Phys., 2020 22(16)8499-8512
     doi.org/10.1039/D0CP00502A

List of suggested additional citations. These are papers that are important in the 'surrounding' of 
of this run, or papers that preceded the highly important papers. If you like your results we are grateful for a citation.

  1. Neese,F.
     The ORCA program system
     WIRES Comput. Molec. Sci., 2012 2(1)73-78
     doi.org/10.1002/wcms.81
  2. Neese,F.
     Software update: the ORCA program system, version 4.0
     WIRES Comput. Molec. Sci., 2018 8(1)1-6
     doi.org/10.1002/wcms.1327
  3. Neese,F.; Wennmohs,F.; Becker,U.; Riplinger,C.
     The ORCA quantum chemistry program package
     J. Chem. Phys., 2020 152 Art. No. L224108
     doi.org/10.1063/5.0004608

List of optional additional citations

  1. Neese,F.
     Approximate second-order SCF convergence for spin unrestricted wavefunctions
     Chem. Phys. Lett., 2000 325(1-3)93-98
     doi.org/10.1016/s0009-2614(00)00662-x

Timings for individual modules:

Sum of individual times          ...        9.630 sec (=   0.160 min)
Startup calculation              ...        0.736 sec (=   0.012 min)   7.6 %
SCF iterations                   ...        8.788 sec (=   0.146 min)  91.3 %
Property calculations            ...        0.106 sec (=   0.002 min)   1.1 %
                             ****ORCA TERMINATED NORMALLY****
TOTAL RUN TIME: 0 days 0 hours 0 minutes 10 seconds 355 msec
