12
 energy: -31.094369901946 gnorm: 0.025822141534 xtb: 6.7.1 (edcfbbe)
C           -1.98978434397825        0.65532095782020        1.74475345487278
O           -1.69900024950810        0.91807317151032        0.33897957914760
C           -0.83278828221065        0.11154830423608       -0.32874314031629
C            0.65912859829140        0.46466893156810       -0.13962874574880
Cl           1.18660627596945        0.13944280177994        1.54197085675216
Cl           1.68662380106321       -0.45421042832125       -1.29840673693450
F           -1.04149769942688       -1.21144935734066       -0.06004492336117
F           -1.11551562836148        0.29374249138033       -1.65345600988120
H           -3.03309487054072        0.93548638835325        1.87740984002661
H           -1.35073087278250        1.27617452559745        2.37421399525339
H           -1.86003597333687       -0.39954444977304        1.98348411753597
H            0.79803716407054        1.52941268500183       -0.33881356987820
12
 energy: -31.095438180469 gnorm: 0.014428904870 xtb: 6.7.1 (edcfbbe)
C           -1.98609417474198        0.65053606263702        1.73859553437693
O           -1.70216406907004        0.90997073191365        0.33998822229392
C           -0.82900079919622        0.12064879643438       -0.31839117282888
C            0.65797428654971        0.48258896259459       -0.13309155373077
Cl           1.17917834627832        0.12728896874995        1.53074117676178
Cl           1.65779812467742       -0.46093028935823       -1.27959124609797
F           -1.03141335523031       -1.20266715606745       -0.05865542532744
F           -1.12064602695372        0.28000623311102       -1.64180606255309
H           -3.02624600261233        0.94005433973169        1.86692697021664
H           -1.33594266534090        1.26872665113245        2.35593735026172
H           -1.85690271216912       -0.40359884749515        1.97419871099374
H            0.80140696705832        1.54604156842863       -0.33313378689822
12
 energy: -31.095730685639 gnorm: 0.005341108299 xtb: 6.7.1 (edcfbbe)
C           -1.98294947005303        0.64983318595030        1.73407367224805
O           -1.70817131517658        0.90041802209331        0.33739126605486
C           -0.82876966808048        0.12605967688175       -0.31318371243088
C            0.65841926034689        0.48435021953893       -0.12662233746601
Cl           1.16993094582346        0.12743025869161        1.52743821035079
Cl           1.64500133855972       -0.45255993273809       -1.27645908416865
F           -1.02119421650621       -1.19997511520313       -0.06227399803163
F           -1.12170991475649        0.26726521090971       -1.63787342277327
H           -3.01724701456294        0.95476434533260        1.86663442851801
H           -1.31955736835924        1.25804691091839        2.34634872332277
H           -1.86647076931710       -0.40498140006417        1.97107300837126
H            0.80066611133114        1.54801463950132       -0.32482803652692
12
 energy: -31.095795568105 gnorm: 0.003086094301 xtb: 6.7.1 (edcfbbe)
C           -1.98224492146341        0.65097595989721        1.73289107298726
O           -1.71427815688196        0.89257522705726        0.33360606895884
C           -0.83041262079228        0.12454054257133       -0.31319196282960
C            0.65781371064972        0.48553752075158       -0.12402725803028
Cl           1.16883006057485        0.12557700105561        1.52572940260022
Cl           1.64484388163188       -0.44389025569502       -1.27621841569273
F           -1.01573408501983       -1.20496846058169       -0.06462822513550
F           -1.11931342853240        0.26197056883317       -1.63969720668090
H           -3.01167282928709        0.97000581655049        1.87174338058301
H           -1.30797193042286        1.25086141104963        2.34245835657853
H           -1.87948516134586       -0.40531614778436        1.97270604823622
H            0.79757340013838        1.55079683810734       -0.31965254410670
12
 energy: -31.095871790554 gnorm: 0.004085254060 xtb: 6.7.1 (edcfbbe)
C           -1.98074981526578        0.65325145048260        1.73102747188185
O           -1.72829643559452        0.87571585166023        0.32519084719167
C           -0.83368939713887        0.11909409724877       -0.31418158349418
C            0.65568648847095        0.48794479240978       -0.11824993433021
Cl           1.16798173802355        0.12011501653042        1.52585233354633
Cl           1.64734563325146       -0.42409040095667       -1.27899044972102
F           -1.00601883719658       -1.21700721819781       -0.06728812142749
F           -1.11347715478951        0.25315677667269       -1.64394395742402
H           -2.99938207709850        1.00320755977362        1.88227329128091
H           -1.28207928774305        1.23647294583242        2.33143263404615
H           -1.90675299684555       -0.40584176809825        1.97607765073409
H            0.78738006117554        1.55664691845472       -0.30748146481570
12
 energy: -31.095907522410 gnorm: 0.004017960217 xtb: 6.7.1 (edcfbbe)
C           -1.97976990668798        0.65460130780857        1.73005658848095
O           -1.73730884604753        0.86581990030146        0.32028200877010
C           -0.83533378806976        0.11520299158705       -0.31506192012628
C            0.65314621952862        0.48958918971488       -0.11468352071238
Cl           1.16986363735676        0.11388543886855        1.52667811212621
Cl           1.64993096975025       -0.41170736197937       -1.28135465067968
F           -1.00215422124638       -1.22354778789238       -0.06780158854297
F           -1.11044171015243        0.24914905405553       -1.64581597082618
H           -2.99193678641809        1.01991148224778        1.88652617902454
H           -1.26887213470867        1.23037050134819        2.32280936685887
H           -1.91931291850440       -0.40451195561388        1.97879150348052
H            0.78013740444874        1.55990326136614       -0.29870739038531
12
 energy: -31.095948360486 gnorm: 0.002584885799 xtb: 6.7.1 (edcfbbe)
C           -1.97758948738801        0.65639082948527        1.72841194737894
O           -1.74913895122193        0.85267034334122        0.31383351591105
C           -0.83680197900968        0.10945430293871       -0.31650401017507
C            0.64822581111626        0.49204679829692       -0.10947628673875
Cl           1.17075423463118        0.10288579836623        1.52910493792017
Cl           1.65269120910139       -0.39398712263547       -1.28532628191909
F           -0.99825993968517       -1.23116609738383       -0.06814856391623
F           -1.10663745592034        0.24362310637178       -1.64753322265119
H           -2.98147875566118        1.03901462106665        1.89022980735101
H           -1.25208985173286        1.22492481320431        2.30861062832152
H           -1.93108325241889       -0.40134297973598        1.98294530522508
H            0.76935633743837        1.56415160849671       -0.28442905923905
12
 energy: -31.095968047578 gnorm: 0.001716531174 xtb: 6.7.1 (edcfbbe)
C           -1.97513793265701        0.65799691897186        1.72655288558290
O           -1.75779401010352        0.84241969146343        0.30881138090449
C           -0.83782096858627        0.10453116846443       -0.31797663606062
C            0.64328138359833        0.49399610771891       -0.10530816738037
Cl           1.16924729724890        0.09259542871025        1.53063727628984
Cl           1.65511329417477       -0.37811368240769       -1.28757415722491
F           -0.99515433988629       -1.23652295166997       -0.06890229638912
F           -1.10456286521685        0.23746467073608       -1.64877128291963
H           -2.97277550762397        1.05391203195554        1.89287816622435
H           -1.23789322821413        1.22140678822203        2.29619837331253
H           -1.93865415857236       -0.39860958703686        1.98634909001290
H            0.76009895508755        1.56758943668450       -0.27117591488397
12
 energy: -31.095979098967 gnorm: 0.001287149331 xtb: 6.7.1 (edcfbbe)
C           -1.97253110977480        0.66019483470079        1.72438569262641
O           -1.76342885092303        0.83463147940538        0.30490838417648
C           -0.83839239061584        0.09966748239616       -0.31939063581933
C            0.63888900160423        0.49510121204992       -0.10195656951815
Cl           1.16624406986421        0.08084435682501        1.53103582986637
Cl           1.65702166079923       -0.36192697619501       -1.29032609402279
F           -0.99221301688512       -1.24067005285812       -0.06967989791058
F           -1.10347782557807        0.23001978927733       -1.64983793357955
H           -2.96559638526241        1.06495677310984        1.89400372597087
H           -1.22764643347479        1.22053145155563        2.28613588530507
H           -1.94253182244402       -0.39509171660715        1.99005710222044
H            0.75161102193953        1.57040738815271       -0.25761677184684
12
 energy: -31.095984488625 gnorm: 0.000748016858 xtb: 6.7.1 (edcfbbe)
C           -1.97170860273708        0.66197187203548        1.72312532082045
O           -1.76496591629919        0.83183733853121        0.30330999002513
C           -0.83873384529220        0.09682118088550       -0.31974907283865
C            0.63772901477037        0.49495635059904       -0.10072421034465
Cl           1.16539048964959        0.07287927957098        1.52985758231901
Cl           1.65843941915343       -0.35187504176407       -1.29308662572517
F           -0.99056948674693       -1.24293227282920       -0.06915112520807
F           -1.10342217258575        0.22495560732968       -1.65041322993018
H           -2.96352518924174        1.06970799395487        1.89395998602712
H           -1.22430618468315        1.22161338507224        2.28262944901341
H           -1.94391886073800       -0.39287225147762        1.99191016018249
H            0.74753925399979        1.57160257990439       -0.24994950687250
12
 energy: -31.095988661840 gnorm: 0.000575840542 xtb: 6.7.1 (edcfbbe)
C           -1.97055144527333        0.66470979173853        1.72135707972964
O           -1.76660051260562        0.82860526119486        0.30083242518377
C           -0.83921702137216        0.09275477403982       -0.32008838500055
C            0.63669046084405        0.49448778450355       -0.09898511117303
Cl           1.16495137703583        0.05980577642094        1.52815848987799
Cl           1.66021039803550       -0.33691027073927       -1.29868535401569
F           -0.98898753911366       -1.24616294503162       -0.06691942319960
F           -1.10319366799574        0.21788945572404       -1.65127909935911
H           -2.96134157994538        1.07423857447637        1.89274350544966
H           -1.22184270693656        1.22517568217446        2.27823186281705
H           -1.94393548573322       -0.38902008312857        1.99467845046489
H            0.74176564230941        1.57309222043940       -0.23832572330662
12
 energy: -31.095989599988 gnorm: 0.000418365108 xtb: 6.7.1 (edcfbbe)
C           -1.97024799215601        0.66580797393037        1.72055912809333
O           -1.76788228779818        0.82688700665914        0.29943116685821
C           -0.83970151170401        0.09109689604830       -0.32013482739082
C            0.63607036649078        0.49436847733469       -0.09807135434423
Cl           1.16542681435605        0.05338452385755        1.52693597561836
Cl           1.66128440872868       -0.32948108240222       -1.30093726912400
F           -0.98849465326786       -1.24773815938767       -0.06532940172656
F           -1.10308108263160        0.21449722806725       -1.65165304350201
H           -2.96074523125371        1.07675174170230        1.89252560951639
H           -1.21981465420806        1.22696372948371        2.27520724783607
H           -1.94395150159635       -0.38757084583901        1.99551761219413
H            0.73908524428940        1.57369853235808       -0.23233212656046
12
 energy: -31.095989906764 gnorm: 0.000233101990 xtb: 6.7.1 (edcfbbe)
C           -1.96980000120289        0.66634829459942        1.72028204017372
O           -1.76833721089373        0.82625179115375        0.29869665523493
C           -0.83983135626852        0.09060083105987       -0.32030219476601
C            0.63575512800095        0.49428252585825       -0.09756293981497
Cl           1.16493378353237        0.05051331417943        1.52684266512582
Cl           1.66115764678479       -0.32668445442861       -1.30213592134830
F           -0.98843813821654       -1.24837313860925       -0.06488699310455
F           -1.10269224555308        0.21333415106693       -1.65192951244931
H           -2.96041380755904        1.07657749741165        1.89220716128057
H           -1.21979976576853        1.22860040618275        2.27401036421246
H           -1.94260515412415       -0.38666821624539        1.99619038067804
H            0.73801904051750        1.57388301958369       -0.22969298775401
12
 energy: -31.095990030926 gnorm: 0.000131878752 xtb: 6.7.1 (edcfbbe)
C           -1.96971234594647        0.66644422130752        1.72031061447140
O           -1.76854445371205        0.82614287779984        0.29855473266900
C           -0.83993123054004        0.09074581822818       -0.32041763821007
C            0.63560615292360        0.49420492001627       -0.09744148243463
Cl           1.16489093736775        0.04993674726090        1.52685237487666
Cl           1.66117524458603       -0.32647801684102       -1.30208534032011
F           -0.98864333671323       -1.24846140292217       -0.06505400889819
F           -1.10265121775251        0.21343594344993       -1.65198339841496
H           -2.96064956814767        1.07583235554622        1.89218394448068
H           -1.22009731545032        1.22951685653259        2.27360808035563
H           -1.94151111859438       -0.38646521732549        1.99641948671616
H            0.73801617122841        1.57381091875973       -0.22922864782318
12
 energy: -31.095990119768 gnorm: 0.000131405841 xtb: 6.7.1 (edcfbbe)
C           -1.96955007677703        0.66647123514623        1.72035785559892
O           -1.76872644836102        0.82603704366668        0.29847960187065
C           -0.84000205649615        0.09098933042851       -0.32058044987665
C            0.63549367616740        0.49413814093573       -0.09730592147124
Cl           1.16437005412343        0.04978560607845        1.52713700147532
Cl           1.66095983266395       -0.32681887385793       -1.30190317512682
F           -0.98886260146686       -1.24851579518168       -0.06552989332160
F           -1.10252780281047        0.21386842664901       -1.65205198033829
H           -2.96102276284118        1.07472305013212        1.89225582203057
H           -1.22040935022166        1.23064019222938        2.27325081688370
H           -1.93998826805943       -0.38637909263192        1.99667240809836
H            0.73821372332814        1.57372675821792       -0.22906336835453
