      -----------------------------------------------------------      
     |                   =====================                   |     
     |                           x T B                           |     
     |                   =====================                   |     
     |                         S. Grimme                         |     
     |          Mulliken Center for Theoretical Chemistry        |     
     |                    University of Bonn                     |     
      -----------------------------------------------------------      

   * xtb version 6.7.1 (edcfbbe) compiled by 'albert@albert-system' on 2024-07-22

   xtb is free software: you can redistribute it and/or modify it under
   the terms of the GNU Lesser General Public License as published by
   the Free Software Foundation, either version 3 of the License, or
   (at your option) any later version.
   
   xtb is distributed in the hope that it will be useful,
   but WITHOUT ANY WARRANTY; without even the implied warranty of
   MERCHANTABILITY or FITNESS FOR A PARTICULAR PURPOSE.  See the
   GNU Lesser General Public License for more details.
   
   Cite this work as:
   * C. Bannwarth, E. Caldeweyher, S. Ehlert, A. Hansen, P. Pracht,
     J. Seibert, S. Spicher, S. Grimme, WIREs Comput. Mol. Sci., 2020, 11,
     e01493. DOI: 10.1002/wcms.1493
   
   for GFN2-xTB:
   * C. Bannwarth, S. Ehlert and S. Grimme., J. Chem. Theory Comput., 2019,
     15, 1652-1671. DOI: 10.1021/acs.jctc.8b01176
   for GFN1-xTB:
   * S. Grimme, C. Bannwarth, P. Shushkov, J. Chem. Theory Comput., 2017,
     13, 1989-2009. DOI: 10.1021/acs.jctc.7b00118
   for GFN0-xTB:
   * P. Pracht, E. Caldeweyher, S. Ehlert, S. Grimme, ChemRxiv, 2019, preprint.
     DOI: 10.26434/chemrxiv.8326202.v1
   for GFN-FF:
   * S. Spicher and S. Grimme, Angew. Chem. Int. Ed., 2020, 59, 15665-15673.
     DOI: 10.1002/anie.202004239
   
   for ALPB and GBSA implicit solvation:
   * S. Ehlert, M. Stahn, S. Spicher, S. Grimme, J. Chem. Theory Comput.,
     2021, 17, 4250-4261. DOI: 10.1021/acs.jctc.1c00471
   
   for ddCOSMO and CPCM-X implicit solvation:
   * M. Stahn, S. Ehlert, S. Grimme, J. Phys. Chem. A,
     2023, XX, XXXX-XXXX. DOI: 10.1021/acs.jpca.3c04382
   
   for DFT-D4:
   * E. Caldeweyher, C. Bannwarth and S. Grimme, J. Chem. Phys., 2017,
     147, 034112. DOI: 10.1063/1.4993215
   * E. Caldeweyher, S. Ehlert, A. Hansen, H. Neugebauer, S. Spicher,
     C. Bannwarth and S. Grimme, J. Chem. Phys., 2019, 150, 154122.
     DOI: 10.1063/1.5090222
   * E. Caldeweyher, J.-M. Mewes, S. Ehlert and S. Grimme, Phys. Chem. Chem. Phys.
     2020, 22, 8499-8512. DOI: 10.1039/D0CP00502A
   
   for sTDA-xTB:
   * S. Grimme and C. Bannwarth, J. Chem. Phys., 2016, 145, 054103.
     DOI: 10.1063/1.4959605
   
   in the mass-spec context:
   * V. Asgeirsson, C. Bauer and S. Grimme, Chem. Sci., 2017, 8, 4879.
     DOI: 10.1039/c7sc00601b
   * J. Koopman and S. Grimme, ACS Omega 2019, 4, 12, 15120-15133.
     DOI: 10.1021/acsomega.9b02011
   
   for metadynamics refer to:
   * S. Grimme, J. Chem. Theory Comput., 2019, 155, 2847-2862
     DOI: 10.1021/acs.jctc.9b00143
   
   for SPH calculations refer to:
   * S. Spicher and S. Grimme, J. Chem. Theory Comput., 2021, 17, 1701-1714
     DOI: 10.1021/acs.jctc.0c01306
   
   for ONIOM refer to:
   * C. Plett, A. Katbashev, S. Ehlert, S. Grimme, M. Bursch,
     Phys. Chem. Chem. Phys., 2023, 25, 17860-17868. DOI: 10.1039/D3CP02178E
   
   for DIPRO refer to:
   * J. Kohn, N. Gildemeister, S. Grimme, D. Fazzi, A. Hansen,
     J. Chem. Phys., 2023, just accepted.
   
   for PTB refer to:
   * S. Grimme, M. Mueller, A. Hansen, J. Chem. Phys., 2023, 158, 124111.
     DOI: 10.1063/5.0137838
   
   with help from (in alphabetical order)
   P. Atkinson, C. Bannwarth, F. Bohle, G. Brandenburg, E. Caldeweyher
   M. Checinski, S. Dohm, S. Ehlert, S. Ehrlich, I. Gerasimov, C. Hölzer
   A. Katbashev, J. Kohn, J. Koopman, C. Lavigne, S. Lehtola, F. März, M. Müller,
   F. Musil, H. Neugebauer, J. Pisarek, C. Plett, P. Pracht, F. Pultar,
   J. Seibert, P. Shushkov, S. Spicher, M. Stahn, M. Steiner, T. Strunk,
   J. Stückrath, T. Rose, and J. Unsleber
   
 * started run on 2025/04/11 at 12:20:26.169     
   ID    Z sym.   atoms
    1    6 C      1-3, 5, 6
    2    1 H      4, 8-18
    3    8 O      7

           -------------------------------------------------
          |                Calculation Setup                |
           -------------------------------------------------

          program call               : /srv/scratch/z5358697/.xtb/bin/xtb solv.coord --gfn2 --sp --chrg 0 --norestart --parallel 1 --alpb water reference -I xtb_sp-xcontrol-inp
          hostname                   : k114
          coordinate file            : solv.coord
          omp threads                :                     1


           -------------------------------------------------
          |                 G F N 2 - x T B                 |
           -------------------------------------------------

        Reference                      10.1021/acs.jctc.8b01176
      * Hamiltonian:
        H0-scaling (s, p, d)           1.850000    2.230000    2.230000
        zeta-weighting                 0.500000
      * Dispersion:
        s8                             2.700000
        a1                             0.520000
        a2                             5.000000
        s9                             5.000000
      * Repulsion:
        kExp                           1.500000    1.000000
        rExp                           1.000000
      * Coulomb:
        alpha                          2.000000
        third order                    shell-resolved
        anisotropic                    true
        a3                             3.000000
        a5                             4.000000
        cn-shift                       1.200000
        cn-exp                         4.000000
        max-rad                        5.000000

      * Solvation model:               ALPB
        Solvent                        water
        Parameter file                 internal GFN2-xTB/ALPB
        Dielectric constant                8.0200E+01
        Reference state                gsolv=reference [X=1]
        Free energy shift                  2.8945E-03 Eh       1.8164E+00 kcal/mol
        Temperature                        2.9815E+02 K
        Density                            1.0000E+00 kg/L
        Solvent mass                       1.8000E+01 g/mol
        Interaction kernel             P16
        Born radius scaling (c1)           1.4744E+00
        Born radii integrator          GBOBC
        Born offset                        0.0000E+00 a0       0.0000E+00 AA
        H-bond correction              true
        Ion screening                  false
        Surface tension                    1.0000E-05 Eh       1.5569E+01 dyn/cm
        Grid points                               974 per atom

          ...................................................
          :                      SETUP                      :
          :.................................................:
          :  # basis functions                  36          :
          :  # atomic orbitals                  36          :
          :  # shells                           24          :
          :  # electrons                        38          :
          :  max. iterations                   250          :
          :  Hamiltonian                  GFN2-xTB          :
          :  restarted?                      false          :
          :  GBSA solvation                   true          :
          :  PC potential                    false          :
          :  electronic temp.          300.0000000     K    :
          :  accuracy                    1.0000000          :
          :  -> integral cutoff          0.2500000E+02      :
          :  -> integral neglect         0.1000000E-07      :
          :  -> SCF convergence          0.1000000E-05 Eh   :
          :  -> wf. convergence          0.1000000E-03 e    :
          :  Broyden damping             0.4000000          :
          :  net charge                          0          :
          :  unpaired electrons                  0          :
          ...................................................

 iter      E             dE          RMSdq      gap      omega  full diag
   1    -21.1192312 -0.211192E+02  0.308E+00   12.42       0.0  T
   2    -21.1473965 -0.281653E-01  0.161E+00   12.30       1.0  T
   3    -21.1482325 -0.835985E-03  0.581E-01   12.25       1.0  T
   4    -21.1483829 -0.150379E-03  0.104E-01   12.26       1.0  T
   5    -21.1483919 -0.900717E-05  0.555E-02   12.27       1.0  T
   6    -21.1483938 -0.188124E-05  0.932E-03   12.27       2.5  T
   7    -21.1483940 -0.209629E-06  0.361E-03   12.27       6.5  T
   8    -21.1483940 -0.279744E-07  0.192E-03   12.27      12.3  T
   9    -21.1483940 -0.694719E-08  0.321E-04   12.27      73.5  T
  10    -21.1483940 -0.404587E-09  0.180E-04   12.27     130.8  T

   *** convergence criteria satisfied after 10 iterations ***

         #    Occupation            Energy/Eh            Energy/eV
      -------------------------------------------------------------
         1        2.0000           -0.6852174             -18.6457
       ...           ...                  ...                  ...
        13        2.0000           -0.4639127             -12.6237
        14        2.0000           -0.4613371             -12.5536
        15        2.0000           -0.4541327             -12.3576
        16        2.0000           -0.4330813             -11.7847
        17        2.0000           -0.4248736             -11.5614
        18        2.0000           -0.4192143             -11.4074
        19        2.0000           -0.4044373             -11.0053 (HOMO)
        20                          0.0466124               1.2684 (LUMO)
        21                          0.0769770               2.0947
        22                          0.0816212               2.2210
        23                          0.1152011               3.1348
        24                          0.1199739               3.2647
       ...                                ...                  ...
        36                          0.3170859               8.6283
      -------------------------------------------------------------
                  HL-Gap            0.4510497 Eh           12.2737 eV
             Fermi-level           -0.1789125 Eh           -4.8685 eV

 SCC (total)                   0 d,  0 h,  0 min,  0.012 sec
 SCC setup                      ...        0 min,  0.001 sec (  9.758%)
 Dispersion                     ...        0 min,  0.000 sec (  0.842%)
 classical contributions        ...        0 min,  0.000 sec (  0.188%)
 integral evaluation            ...        0 min,  0.001 sec ( 10.401%)
 iterations                     ...        0 min,  0.005 sec ( 45.976%)
 molecular gradient             ...        0 min,  0.004 sec ( 31.410%)
 printout                       ...        0 min,  0.000 sec (  1.296%)

         :::::::::::::::::::::::::::::::::::::::::::::::::::::
         ::                     SUMMARY                     ::
         :::::::::::::::::::::::::::::::::::::::::::::::::::::
         :: total energy             -20.887854491154 Eh    ::
         :: total w/o Gsasa/hb       -20.888129729811 Eh    ::
         :: gradient norm              0.000043260094 Eh/a0 ::
         :: HOMO-LUMO gap             12.273685941614 eV    ::
         ::.................................................::
         :: SCC energy               -21.148358123074 Eh    ::
         :: -> isotropic ES            0.034044733946 Eh    ::
         :: -> anisotropic ES          0.004612326691 Eh    ::
         :: -> anisotropic XC          0.007811269942 Eh    ::
         :: -> dispersion             -0.010546492931 Eh    ::
         :: -> Gsolv                  -0.003903299928 Eh    ::
         ::    -> Gelec               -0.004178538585 Eh    ::
         ::    -> Gsasa                0.000528692132 Eh    ::
         ::    -> Ghb                 -0.003148002636 Eh    ::
         ::    -> Gshift               0.002894549160 Eh    ::
         :: repulsion energy           0.260503631919 Eh    ::
         :: add. restraining           0.000000000000 Eh    ::
         :: total charge              -0.000000000000 e     ::
         :::::::::::::::::::::::::::::::::::::::::::::::::::::

           -------------------------------------------------
          |                Property Printout                |
           -------------------------------------------------

    * Orbital Energies and Occupations

         #    Occupation            Energy/Eh            Energy/eV
      -------------------------------------------------------------
         1        2.0000           -0.6852174             -18.6457
       ...           ...                  ...                  ...
         7        2.0000           -0.5410082             -14.7216
         8        2.0000           -0.5283882             -14.3782
         9        2.0000           -0.5131167             -13.9626
        10        2.0000           -0.4980235             -13.5519
        11        2.0000           -0.4957432             -13.4899
        12        2.0000           -0.4706057             -12.8058
        13        2.0000           -0.4639127             -12.6237
        14        2.0000           -0.4613371             -12.5536
        15        2.0000           -0.4541327             -12.3576
        16        2.0000           -0.4330813             -11.7847
        17        2.0000           -0.4248736             -11.5614
        18        2.0000           -0.4192143             -11.4074
        19        2.0000           -0.4044373             -11.0053 (HOMO)
        20                          0.0466124               1.2684 (LUMO)
        21                          0.0769770               2.0947
        22                          0.0816212               2.2210
        23                          0.1152011               3.1348
        24                          0.1199739               3.2647
        25                          0.1362168               3.7066
        26                          0.1508040               4.1036
        27                          0.1627363               4.4283
        28                          0.1866668               5.0795
        29                          0.2047599               5.5718
        30                          0.2191842               5.9643
       ...                                ...                  ...
        36                          0.3170859               8.6283
      -------------------------------------------------------------
                  HL-Gap            0.4510497 Eh           12.2737 eV
             Fermi-level           -0.1789125 Eh           -4.8685 eV

     #   Z          covCN         q      C6AA      α(0)
     1   6 C        3.750    -0.110    22.674     6.791
     2   6 C        3.800    -0.063    21.711     6.634
     3   6 C        3.847    -0.030    21.081     6.531
     4   1 H        0.924     0.032     2.558     2.501
     5   6 C        3.754    -0.110    22.663     6.788
     6   6 C        3.675     0.079    19.483     6.325
     7   8 O        1.655    -0.502    22.936     6.465
     8   1 H        0.925     0.044     2.396     2.421
     9   1 H        0.925     0.040     2.449     2.447
    10   1 H        0.925     0.035     2.516     2.481
    11   1 H        0.924     0.038     2.475     2.460
    12   1 H        0.924     0.032     2.563     2.504
    13   1 H        0.925     0.046     2.364     2.405
    14   1 H        0.925     0.040     2.447     2.446
    15   1 H        0.925     0.038     2.478     2.461
    16   1 H        0.924     0.038     2.480     2.463
    17   1 H        0.923     0.019     2.755     2.595
    18   1 H        0.805     0.335     0.624     1.241

 Mol. C6AA /au·bohr⁶  :       2120.604745
 Mol. C8AA /au·bohr⁸  :      43681.548434
 Mol. α(0) /au        :         67.958453


Wiberg/Mayer (AO) data.
largest (>0.10) Wiberg bond orders for each atom

 ---------------------------------------------------------------------------
     #   Z sym  total        # sym  WBO       # sym  WBO       # sym  WBO
 ---------------------------------------------------------------------------
     1   6 C    3.997 --     2 C    1.020     9 H    0.985     8 H    0.984
                            10 H    0.982
     2   6 C    3.997 --     1 C    1.020     3 C    0.996    12 H    0.978
                            11 H    0.977
     3   6 C    3.995 --     5 C    1.010     2 C    0.996     6 C    0.982
                             4 H    0.968
     4   1 H    0.999 --     3 C    0.968
     5   6 C    3.996 --     3 C    1.010    15 H    0.986    14 H    0.986
                            13 H    0.983
     6   6 C    3.953 --     7 O    0.997     3 C    0.982    16 H    0.975
                            17 H    0.970
     7   8 O    1.926 --     6 C    0.997    18 H    0.864
     8   1 H    0.998 --     1 C    0.984
     9   1 H    0.998 --     1 C    0.985
    10   1 H    0.999 --     1 C    0.982
    11   1 H    0.999 --     2 C    0.977
    12   1 H    0.999 --     2 C    0.978
    13   1 H    0.998 --     5 C    0.983
    14   1 H    0.998 --     5 C    0.986
    15   1 H    0.999 --     5 C    0.986
    16   1 H    0.999 --     6 C    0.975
    17   1 H    1.000 --     6 C    0.970
    18   1 H    0.888 --     7 O    0.864
 ---------------------------------------------------------------------------

Topologies differ in total number of bonds
Writing topology from bond orders to xtbtopo.mol

molecular dipole:
                 x           y           z       tot (Debye)
 q only:       -0.700       0.160       0.134
   full:       -0.829       0.246       0.220       2.269
molecular quadrupole (traceless):
                xx          xy          yy          xz          yz          zz
 q only:       -3.781      -0.500       2.239       1.949      -1.137       1.543
  q+dip:       -4.375      -0.684       3.226       2.943      -0.839       1.149
   full:       -4.569      -0.759       3.069       2.788      -1.204       1.500


           -------------------------------------------------
          | TOTAL ENERGY              -20.887854491154 Eh   |
          | GRADIENT NORM               0.000043260094 Eh/α |
          | HOMO-LUMO GAP              12.273685941614 eV   |
           -------------------------------------------------

------------------------------------------------------------------------
 * finished run on 2025/04/11 at 12:20:26.227     
------------------------------------------------------------------------
 total:
 * wall-time:     0 d,  0 h,  0 min,  0.057 sec
 *  cpu-time:     0 d,  0 h,  0 min,  0.020 sec
 * ratio c/w:     0.346 speedup
 SCF:
 * wall-time:     0 d,  0 h,  0 min,  0.012 sec
 *  cpu-time:     0 d,  0 h,  0 min,  0.012 sec
 * ratio c/w:     0.992 speedup

