 Entering Gaussian System
 *********************************************
 Gaussian 98:
 frequency output generated by the xtb code
 *********************************************
                         Standard orientation:
 --------------------------------------------------------------------
  Center     Atomic     Atomic              Coordinates (Angstroms)
  Number     Number      Type              X           Y           Z
 --------------------------------------------------------------------
    1          6             0        1.925439    0.757414    0.641120
    2          6             0        1.348401   -0.529855    0.059957
    3          6             0        1.243640   -0.442495   -1.460939
    4          6             0       -0.023563   -0.858089    0.686589
    5          6             0       -1.087022    0.113270    0.253817
    6          8             0       -1.189056    1.261229    0.634229
    7          8             0       -1.933438   -0.419312   -0.614940
    8          1             0        2.879446    0.986999    0.173502
    9          1             0        2.080210    0.659683    1.712818
   10          1             0        1.246647    1.590444    0.471492
   11          1             0        2.017317   -1.357973    0.315910
   12          1             0        2.233123   -0.350222   -1.901304
   13          1             0        0.764710   -1.330303   -1.866523
   14          1             0        0.659781    0.428601   -1.752184
   15          1             0        0.062998   -0.809296    1.772386
   16          1             0       -0.336698   -1.856573    0.383310
   17          1             0       -2.628176    0.204560   -0.901483
 --------------------------------------------------------------------
     1 basis functions        1 primitive gaussians
     1 alpha electrons        1 beta electrons
 
 Harmonic frequencies (cm**-1), IR intensities (km*mol⁻¹),
 Raman scattering activities (A**4/amu), Raman depolarization ratios,
 reduced masses (AMU), force constants (mDyne/A) and normal coordinates:
                      1                      2                      3
                        a                      a                      a 
 Frequencies --    45.7878                88.5112               166.3418
 Red. masses --    13.7083                 9.3601                11.6273
 Frc consts  --     0.0000                 0.0000                 0.0000
 IR Inten    --     5.3782                 0.9574                 1.6341
 Raman Activ --     0.0000                 0.0000                 0.0000
 Depolar     --     0.0000                 0.0000                 0.0000
 Atom AN      X      Y      Z        X      Y      Z        X      Y      Z
   1   6     0.06  -0.12   0.24     0.28  -0.21   0.06     0.41  -0.16  -0.02
   2   6     0.02   0.01  -0.00    -0.05  -0.02  -0.00     0.11  -0.02  -0.05
   3   6     0.04   0.30   0.01    -0.41   0.25   0.03     0.34  -0.04  -0.06
   4   6    -0.01  -0.04  -0.10     0.03   0.14   0.27     0.01   0.24  -0.12
   5   6    -0.00  -0.03  -0.09     0.02  -0.00  -0.01    -0.18   0.10  -0.02
   6   8     0.29   0.12  -0.51    -0.19   0.03  -0.16    -0.55   0.03   0.13
   7   8    -0.38  -0.24   0.39     0.31  -0.18  -0.18    -0.21  -0.09   0.10
   8   1     0.02  -0.02   0.08     0.04  -0.05  -0.07     0.16  -0.14   0.03
   9   1     0.02  -0.09   0.06     0.20  -0.13  -0.01     0.07  -0.05   0.00
  10   1     0.03  -0.02   0.11     0.08  -0.03   0.14     0.19   0.01  -0.04
  11   1    -0.00  -0.02  -0.04    -0.04  -0.05  -0.08    -0.03  -0.05   0.01
  12   1     0.01   0.11   0.01    -0.14  -0.02  -0.06     0.12  -0.05   0.03
  13   1     0.01   0.11  -0.05    -0.25   0.14   0.01     0.09   0.00  -0.03
  14   1     0.01   0.10   0.05    -0.04   0.15   0.09     0.14   0.01  -0.05
  15   1    -0.02  -0.03  -0.03     0.04   0.14   0.07     0.00   0.08  -0.03
  16   1     0.00  -0.01  -0.05     0.00   0.01   0.17    -0.00   0.06  -0.01
  17   1    -0.10  -0.06   0.10     0.08  -0.07  -0.11    -0.11  -0.07   0.07
                      4                      5                      6
                        a                      a                      a 
 Frequencies --   210.8208               233.4387               317.7199
 Red. masses --     1.7743                 1.4826                10.5548
 Frc consts  --     0.0000                 0.0000                 0.0000
 IR Inten    --     0.1356                 0.2341                 1.9079
 Raman Activ --     0.0000                 0.0000                 0.0000
 Depolar     --     0.0000                 0.0000                 0.0000
 Atom AN      X      Y      Z        X      Y      Z        X      Y      Z
   1   6     0.08  -0.05  -0.02     0.07  -0.08   0.05    -0.40  -0.20   0.12
   2   6    -0.03   0.00  -0.01     0.02  -0.03  -0.01    -0.08  -0.14  -0.26
   3   6    -0.17   0.10   0.01    -0.04  -0.06   0.00     0.17  -0.01  -0.29
   4   6     0.00  -0.01   0.05     0.01   0.05   0.01     0.04   0.10   0.08
   5   6     0.02  -0.01   0.02    -0.01   0.05  -0.02     0.08   0.18   0.16
   6   8     0.02  -0.00  -0.02    -0.08   0.06  -0.03    -0.14   0.26  -0.02
   7   8     0.09  -0.04  -0.02     0.02   0.03  -0.03     0.34  -0.15   0.20
   8   1     0.26  -0.30   0.33    -0.09   0.11  -0.15    -0.08   0.04   0.15
   9   1    -0.43   0.15   0.07     0.25  -0.13  -0.03    -0.21  -0.13   0.04
  10   1     0.26   0.10  -0.43    -0.08  -0.06   0.24    -0.14  -0.08   0.03
  11   1    -0.01  -0.00  -0.02     0.00  -0.01  -0.02    -0.03  -0.05  -0.09
  12   1    -0.08   0.28  -0.01    -0.05   0.48   0.02     0.08  -0.00  -0.01
  13   1     0.15  -0.07  -0.02     0.44  -0.25  -0.03     0.07   0.01  -0.13
  14   1    -0.26  -0.10   0.04    -0.43  -0.30   0.01     0.08   0.01  -0.11
  15   1     0.00  -0.01   0.01     0.00   0.03   0.00     0.12   0.06   0.01
  16   1    -0.00  -0.00   0.01    -0.01   0.02   0.02    -0.08   0.04   0.09
  17   1     0.02  -0.02  -0.02    -0.01  -0.01   0.01     0.06  -0.10  -0.03
                      7                      8                      9
                        a                      a                      a 
 Frequencies --   359.4171               421.3001               462.7540
 Red. masses --     7.7975                 8.2232                 8.4041
 Frc consts  --     0.0000                 0.0000                 0.0000
 IR Inten    --     1.1999                 4.0645                 5.3438
 Raman Activ --     0.0000                 0.0000                 0.0000
 Depolar     --     0.0000                 0.0000                 0.0000
 Atom AN      X      Y      Z        X      Y      Z        X      Y      Z
   1   6     0.02   0.07   0.40     0.02   0.00  -0.17    -0.21  -0.11  -0.11
   2   6     0.22   0.17  -0.07     0.05  -0.14   0.17     0.36  -0.39   0.08
   3   6    -0.31  -0.32  -0.07    -0.08   0.06   0.22    -0.04   0.09   0.18
   4   6     0.19   0.09  -0.27    -0.09  -0.19  -0.29     0.25   0.11  -0.00
   5   6     0.10   0.09  -0.12     0.08   0.21   0.08     0.17   0.05  -0.25
   6   8    -0.11   0.03   0.02    -0.20   0.26  -0.04    -0.17  -0.06  -0.00
   7   8     0.01  -0.01   0.03     0.29  -0.14   0.16    -0.15   0.16  -0.01
   8   1     0.05   0.08   0.23    -0.03  -0.01  -0.13    -0.07   0.10   0.00
   9   1    -0.10  -0.11   0.12     0.07   0.10  -0.05    -0.11   0.09  -0.01
  10   1     0.01   0.03   0.15    -0.03  -0.03  -0.08    -0.19  -0.16  -0.14
  11   1     0.08   0.06  -0.03     0.02  -0.04   0.06     0.11  -0.10   0.02
  12   1    -0.15  -0.19  -0.19    -0.04   0.04   0.02    -0.07   0.09  -0.06
  13   1    -0.18  -0.14   0.18    -0.05   0.05   0.02    -0.07   0.09  -0.02
  14   1    -0.11  -0.12  -0.06    -0.03   0.04   0.15    -0.05   0.07   0.25
  15   1     0.00  -0.05  -0.07    -0.12  -0.38  -0.06     0.03   0.20  -0.00
  16   1     0.06   0.04  -0.15    -0.09   0.05  -0.40     0.02  -0.00   0.15
  17   1    -0.06  -0.04   0.08     0.01  -0.13  -0.01    -0.12   0.04   0.20
                     10                     11                     12
                        a                      a                      a 
 Frequencies --   551.5156               647.1226               718.6361
 Red. masses --    11.0536                 4.2476                10.3593
 Frc consts  --     0.0000                 0.0000                 0.0000
 IR Inten    --    69.4122               181.7087               124.9372
 Raman Activ --     0.0000                 0.0000                 0.0000
 Depolar     --     0.0000                 0.0000                 0.0000
 Atom AN      X      Y      Z        X      Y      Z        X      Y      Z
   1   6     0.05   0.03   0.02    -0.00   0.01   0.00    -0.04  -0.00  -0.01
   2   6     0.13   0.00  -0.05    -0.22   0.09   0.01    -0.26   0.08   0.04
   3   6     0.02  -0.01  -0.07     0.01   0.01  -0.04    -0.04   0.01   0.01
   4   6     0.17  -0.27   0.17    -0.03  -0.15   0.11    -0.01  -0.07   0.00
   5   6    -0.02  -0.20   0.34     0.19  -0.05  -0.02     0.54   0.09  -0.45
   6   8    -0.36   0.01  -0.41    -0.10  -0.05  -0.16    -0.22  -0.19   0.05
   7   8    -0.06   0.35   0.08     0.21   0.18  -0.08    -0.03   0.03   0.33
   8   1     0.02   0.03   0.03     0.00  -0.08  -0.03    -0.01  -0.12  -0.05
   9   1    -0.01  -0.00   0.01     0.04  -0.02  -0.01     0.04  -0.03  -0.01
  10   1     0.00  -0.00   0.00     0.07   0.07   0.03     0.08   0.08   0.04
  11   1     0.07   0.02  -0.04    -0.03   0.04  -0.02    -0.03   0.05  -0.01
  12   1    -0.00  -0.01  -0.04     0.05  -0.04   0.08     0.04  -0.02   0.12
  13   1    -0.01  -0.01  -0.00     0.03  -0.01  -0.02     0.05  -0.02  -0.02
  14   1     0.00  -0.01  -0.02     0.04  -0.00  -0.11     0.03  -0.00  -0.11
  15   1     0.12  -0.20   0.05    -0.02  -0.04   0.03    -0.09   0.05   0.00
  16   1     0.06  -0.05  -0.04    -0.01  -0.04   0.02    -0.04  -0.01   0.02
  17   1     0.23   0.34  -0.05    -0.42  -0.14   0.71     0.27   0.22  -0.14
                     13                     14                     15
                        a                      a                      a 
 Frequencies --   842.8424               905.8825               917.7829
 Red. masses --     9.8373                 8.7961                 5.4815
 Frc consts  --     0.0000                 0.0000                 0.0000
 IR Inten    --     9.5827                 7.2408                 5.1859
 Raman Activ --     0.0000                 0.0000                 0.0000
 Depolar     --     0.0000                 0.0000                 0.0000
 Atom AN      X      Y      Z        X      Y      Z        X      Y      Z
   1   6    -0.19  -0.27  -0.15    -0.13  -0.18  -0.14     0.09  -0.09  -0.03
   2   6    -0.19   0.18  -0.05    -0.02   0.14  -0.04     0.05  -0.00   0.09
   3   6    -0.03   0.02   0.36    -0.04   0.07   0.19    -0.08   0.01  -0.18
   4   6     0.22   0.41  -0.32     0.39  -0.21   0.27    -0.01   0.39   0.35
   5   6    -0.06  -0.19   0.20    -0.01   0.21  -0.13     0.09  -0.06  -0.05
   6   8     0.05  -0.15  -0.11    -0.01   0.23   0.12     0.05  -0.15   0.00
   7   8     0.10   0.05   0.04    -0.26  -0.07  -0.20    -0.08  -0.06  -0.06
   8   1    -0.04  -0.13  -0.05    -0.01  -0.09  -0.01     0.00   0.21   0.07
   9   1    -0.04  -0.15  -0.05    -0.04  -0.16  -0.05    -0.09   0.05   0.01
  10   1     0.00  -0.02   0.01     0.03   0.01   0.03    -0.16  -0.19  -0.08
  11   1    -0.12   0.01   0.03     0.14   0.10  -0.16    -0.11  -0.12  -0.06
  12   1     0.02  -0.03   0.16     0.06  -0.07   0.18     0.04  -0.01   0.08
  13   1     0.02  -0.03   0.14     0.06  -0.05   0.11     0.05  -0.00  -0.11
  14   1     0.01  -0.01   0.01     0.04  -0.02  -0.16     0.03   0.01  -0.15
  15   1     0.13   0.06  -0.09     0.10  -0.22   0.08    -0.25  -0.33   0.13
  16   1     0.14   0.10  -0.12     0.18  -0.04  -0.06     0.06   0.22  -0.38
  17   1     0.09   0.13   0.09    -0.14  -0.16  -0.17     0.04   0.10   0.09
                     16                     17                     18
                        a                      a                      a 
 Frequencies --   954.9073               992.1035               998.0327
 Red. masses --     2.8861                 5.1422                 6.1628
 Frc consts  --     0.0000                 0.0000                 0.0000
 IR Inten    --     3.6297                 4.7985                 2.0144
 Raman Activ --     0.0000                 0.0000                 0.0000
 Depolar     --     0.0000                 0.0000                 0.0000
 Atom AN      X      Y      Z        X      Y      Z        X      Y      Z
   1   6     0.03  -0.19   0.15    -0.28  -0.12   0.16     0.09   0.16   0.27
   2   6     0.06   0.07   0.07    -0.03   0.02   0.23    -0.21  -0.21   0.11
   3   6     0.03   0.27  -0.02     0.14  -0.01  -0.31    -0.27  -0.13  -0.09
   4   6    -0.07  -0.08  -0.08     0.17   0.15   0.09     0.33   0.02  -0.19
   5   6    -0.01  -0.00   0.01     0.03   0.01   0.02    -0.06   0.01   0.05
   6   8    -0.01   0.01  -0.00     0.02   0.00   0.01     0.00   0.05  -0.00
   7   8     0.04   0.02   0.04    -0.08  -0.05  -0.08    -0.04   0.01  -0.04
   8   1    -0.10  -0.02  -0.16    -0.12  -0.44  -0.26    -0.04  -0.01  -0.09
   9   1     0.09   0.37   0.06     0.20   0.17   0.02     0.12   0.33   0.08
  10   1    -0.15  -0.23  -0.24     0.15   0.13  -0.04    -0.01  -0.02  -0.09
  11   1    -0.06  -0.12  -0.24     0.04   0.09   0.21    -0.07  -0.10  -0.06
  12   1    -0.01  -0.16  -0.10    -0.09   0.05  -0.35     0.10   0.02   0.37
  13   1     0.04  -0.15   0.43    -0.08   0.03  -0.02     0.08   0.04  -0.36
  14   1    -0.06  -0.11  -0.39    -0.07  -0.01   0.11     0.11   0.06  -0.10
  15   1     0.02   0.09  -0.03     0.03  -0.11   0.03     0.17   0.04  -0.06
  16   1    -0.04  -0.04   0.09     0.06   0.08  -0.11     0.10  -0.02   0.02
  17   1     0.01  -0.01  -0.01     0.00   0.03   0.01    -0.03  -0.04  -0.06
                     19                     20                     21
                        a                      a                      a 
 Frequencies --  1066.2302              1109.9316              1131.4820
 Red. masses --     6.5204                 4.4225                 6.0588
 Frc consts  --     0.0000                 0.0000                 0.0000
 IR Inten    --   213.6452                64.0635                87.0787
 Raman Activ --     0.0000                 0.0000                 0.0000
 Depolar     --     0.0000                 0.0000                 0.0000
 Atom AN      X      Y      Z        X      Y      Z        X      Y      Z
   1   6     0.04   0.15   0.08     0.16  -0.03   0.02     0.10  -0.16  -0.06
   2   6    -0.08  -0.11  -0.22    -0.33   0.12  -0.07    -0.11   0.21   0.17
   3   6     0.07   0.00   0.17     0.19  -0.07   0.03     0.02  -0.05  -0.11
   4   6    -0.06   0.05   0.05     0.07  -0.04   0.08     0.02  -0.19  -0.09
   5   6     0.23   0.07   0.07     0.09   0.01  -0.11    -0.00   0.08   0.00
   6   8     0.02   0.08   0.07    -0.03  -0.10  -0.03    -0.01   0.29   0.11
   7   8    -0.22  -0.29  -0.27    -0.00   0.19   0.09    -0.04  -0.28  -0.14
   8   1     0.01   0.02  -0.00     0.01   0.20   0.05     0.00   0.16   0.05
   9   1     0.04   0.07   0.02    -0.06   0.10   0.03    -0.08  -0.00   0.00
  10   1     0.03   0.06   0.01    -0.13  -0.15  -0.06    -0.13  -0.17  -0.06
  11   1    -0.09  -0.08  -0.07    -0.35  -0.14   0.14    -0.14   0.01   0.19
  12   1    -0.02  -0.01  -0.03    -0.07   0.06  -0.24    -0.02   0.05  -0.07
  13   1    -0.02  -0.01   0.11    -0.10   0.04   0.06    -0.03   0.03  -0.08
  14   1    -0.03  -0.02   0.07    -0.07  -0.01   0.24    -0.01   0.01   0.06
  15   1     0.45  -0.16  -0.02     0.33  -0.13  -0.00    -0.07   0.12  -0.02
  16   1    -0.38   0.13  -0.01     0.14  -0.03  -0.04     0.38  -0.19   0.08
  17   1     0.13   0.26   0.22    -0.18  -0.27  -0.22     0.21   0.34   0.29
                     22                     23                     24
                        a                      a                      a 
 Frequencies --  1192.1134              1202.7366              1232.3573
 Red. masses --     7.0298                 6.2910                 7.7652
 Frc consts  --     0.0000                 0.0000                 0.0000
 IR Inten    --    19.7278                79.0373               181.2634
 Raman Activ --     0.0000                 0.0000                 0.0000
 Depolar     --     0.0000                 0.0000                 0.0000
 Atom AN      X      Y      Z        X      Y      Z        X      Y      Z
   1   6     0.02   0.17  -0.20    -0.04   0.27   0.06    -0.00   0.03   0.04
   2   6    -0.12  -0.33   0.40    -0.20  -0.34  -0.20    -0.08   0.05  -0.12
   3   6    -0.03   0.27  -0.19     0.17   0.03   0.11     0.08  -0.06   0.06
   4   6     0.19   0.01  -0.12     0.15   0.03   0.08     0.10  -0.02  -0.08
   5   6     0.09  -0.01   0.12    -0.26   0.02  -0.17     0.46  -0.04   0.45
   6   8    -0.01   0.01  -0.01     0.03   0.05   0.03    -0.05   0.06  -0.03
   7   8    -0.07  -0.00  -0.06     0.11  -0.03   0.08    -0.23  -0.04  -0.20
   8   1     0.09   0.09   0.16     0.02  -0.05   0.01    -0.02   0.00  -0.02
   9   1    -0.10  -0.25  -0.05     0.05   0.00   0.00     0.01   0.03   0.01
  10   1     0.04   0.11   0.18     0.10   0.17   0.08     0.01   0.01  -0.02
  11   1    -0.16  -0.13   0.28    -0.13  -0.23  -0.33    -0.12  -0.10  -0.15
  12   1    -0.01  -0.10  -0.09    -0.04  -0.03  -0.14    -0.01   0.02  -0.04
  13   1     0.03  -0.07   0.18    -0.04  -0.02   0.17    -0.04   0.02   0.01
  14   1    -0.06  -0.06  -0.30    -0.06  -0.05   0.08    -0.02  -0.01   0.11
  15   1     0.06   0.02  -0.03    -0.26  -0.04   0.05    -0.50   0.22   0.02
  16   1    -0.07   0.02   0.04     0.33  -0.06  -0.07    -0.01   0.00  -0.00
  17   1    -0.03  -0.04  -0.06     0.10   0.14   0.12    -0.11  -0.14  -0.16
                     25                     26                     27
                        a                      a                      a 
 Frequencies --  1275.3738              1323.3616              1332.1942
 Red. masses --     5.7713                 4.9464                 4.7309
 Frc consts  --     0.0000                 0.0000                 0.0000
 IR Inten    --   107.1355                11.2789                30.2229
 Raman Activ --     0.0000                 0.0000                 0.0000
 Depolar     --     0.0000                 0.0000                 0.0000
 Atom AN      X      Y      Z        X      Y      Z        X      Y      Z
   1   6     0.16  -0.08  -0.03    -0.08   0.06  -0.12    -0.08   0.03   0.02
   2   6    -0.38   0.04   0.14     0.11   0.23   0.48     0.26   0.25  -0.13
   3   6     0.13  -0.05  -0.03     0.05  -0.15  -0.04    -0.08  -0.02  -0.01
   4   6     0.40  -0.04  -0.05    -0.07  -0.01  -0.07     0.29  -0.17   0.04
   5   6    -0.21  -0.00  -0.06     0.01   0.00  -0.00    -0.19  -0.00  -0.13
   6   8     0.03  -0.03  -0.00    -0.00  -0.02  -0.00     0.01   0.03   0.02
   7   8     0.05  -0.00   0.03     0.00   0.00   0.00     0.06   0.01   0.05
   8   1     0.01   0.15   0.03     0.03  -0.11   0.02    -0.03  -0.12  -0.07
   9   1    -0.09   0.03   0.02    -0.05  -0.18  -0.04     0.02  -0.07  -0.01
  10   1    -0.09  -0.12  -0.02    -0.03   0.02   0.05    -0.00   0.01  -0.03
  11   1     0.27   0.25  -0.15    -0.11  -0.28  -0.62    -0.50  -0.31   0.23
  12   1    -0.03   0.04  -0.13    -0.04   0.08  -0.12     0.03   0.03   0.10
  13   1    -0.07   0.03   0.01    -0.03   0.07  -0.18     0.03  -0.02  -0.01
  14   1    -0.03  -0.01   0.10     0.04   0.00   0.04     0.04   0.04   0.03
  15   1    -0.22   0.00   0.02     0.19   0.01  -0.03    -0.22  -0.07   0.04
  16   1    -0.49   0.14   0.07    -0.06  -0.00   0.04    -0.37   0.05   0.14
  17   1     0.05   0.06   0.04    -0.00  -0.01  -0.01     0.03   0.04   0.04
                     28                     29                     30
                        a                      a                      a 
 Frequencies --  1408.6172              1421.2398              1436.7712
 Red. masses --     3.2750                 3.0896                 2.2835
 Frc consts  --     0.0000                 0.0000                 0.0000
 IR Inten    --     4.3464                 2.6010                 6.0284
 Raman Activ --     0.0000                 0.0000                 0.0000
 Depolar     --     0.0000                 0.0000                 0.0000
 Atom AN      X      Y      Z        X      Y      Z        X      Y      Z
   1   6     0.11   0.18   0.11    -0.16  -0.29  -0.13    -0.02  -0.09  -0.03
   2   6    -0.02  -0.04  -0.10     0.04   0.05  -0.00     0.01   0.00  -0.02
   3   6     0.02   0.02   0.37     0.00  -0.02   0.21     0.01  -0.02   0.10
   4   6     0.02  -0.02   0.03     0.05  -0.10   0.06    -0.03   0.23  -0.18
   5   6    -0.01  -0.00  -0.00    -0.05  -0.00  -0.02     0.07   0.03   0.04
   6   8     0.00   0.01   0.00     0.00   0.00   0.00    -0.00  -0.03  -0.01
   7   8     0.00   0.00   0.00     0.01   0.00   0.01    -0.02  -0.00  -0.02
   8   1    -0.03  -0.20  -0.18     0.03   0.33   0.25    -0.01   0.10   0.03
   9   1    -0.11  -0.24   0.01     0.19   0.37  -0.01     0.00   0.11   0.01
  10   1    -0.17  -0.17  -0.15     0.29   0.27   0.17     0.09   0.08   0.06
  11   1     0.01   0.04   0.11    -0.08  -0.05   0.01     0.02   0.02  -0.01
  12   1    -0.18  -0.04  -0.38    -0.11   0.01  -0.23    -0.05   0.04  -0.09
  13   1     0.07   0.16  -0.39     0.04   0.10  -0.24    -0.02   0.06  -0.10
  14   1     0.04  -0.12  -0.41     0.05  -0.06  -0.24     0.02  -0.03  -0.12
  15   1    -0.02   0.05   0.00     0.01   0.18  -0.00    -0.14  -0.60   0.02
  16   1     0.00   0.02  -0.05    -0.07   0.06  -0.17     0.06  -0.19   0.62
  17   1     0.00  -0.00  -0.00     0.01   0.01   0.01    -0.01  -0.01  -0.01
                     31                     32                     33
                        a                      a                      a 
 Frequencies --  1489.2776              1495.0603              1501.8805
 Red. masses --     1.5382                 1.5751                 1.5464
 Frc consts  --     0.0000                 0.0000                 0.0000
 IR Inten    --     0.8312                 1.5298                 1.9215
 Raman Activ --     0.0000                 0.0000                 0.0000
 Depolar     --     0.0000                 0.0000                 0.0000
 Atom AN      X      Y      Z        X      Y      Z        X      Y      Z
   1   6     0.11  -0.07   0.00     0.03  -0.09   0.15    -0.14   0.03   0.05
   2   6     0.00   0.02   0.02     0.05  -0.00   0.05    -0.04   0.04   0.03
   3   6    -0.13   0.10   0.00     0.11   0.04  -0.03    -0.02   0.14  -0.01
   4   6    -0.00   0.00  -0.00    -0.01  -0.01   0.00     0.01   0.01  -0.02
   5   6     0.01  -0.01   0.00    -0.02   0.02  -0.01     0.00   0.01  -0.00
   6   8    -0.00   0.01   0.00     0.00  -0.02  -0.00     0.00  -0.01  -0.00
   7   8    -0.00   0.00  -0.00     0.01   0.00   0.01     0.00   0.00   0.00
   8   1    -0.15   0.07  -0.29    -0.27   0.35  -0.35     0.09   0.10   0.26
   9   1    -0.41   0.10   0.07    -0.22  -0.22   0.02     0.46  -0.22  -0.08
  10   1     0.10   0.11   0.20     0.34   0.21  -0.28     0.02  -0.06  -0.40
  11   1    -0.01  -0.02  -0.05    -0.02  -0.03  -0.02     0.01   0.02  -0.03
  12   1    -0.06  -0.38  -0.19     0.10  -0.08   0.18     0.02  -0.47  -0.05
  13   1     0.50  -0.22  -0.10    -0.26   0.17  -0.07     0.27  -0.05  -0.18
  14   1     0.09   0.16   0.26    -0.31  -0.22  -0.04    -0.20  -0.05   0.23
  15   1     0.00   0.00   0.00     0.03   0.02  -0.00    -0.01  -0.05   0.00
  16   1     0.00  -0.00   0.00    -0.01   0.01  -0.02    -0.01  -0.01   0.06
  17   1    -0.00  -0.00   0.00     0.01   0.00  -0.00     0.00   0.00  -0.00
                     34                     35                     36
                        a                      a                      a 
 Frequencies --  1505.3238              1706.8106              2930.1998
 Red. masses --     1.5737                13.2285                 1.7537
 Frc consts  --     0.0000                 0.0000                 0.0000
 IR Inten    --     1.4047               684.5693                70.8572
 Raman Activ --     0.0000                 0.0000                 0.0000
 Depolar     --     0.0000                 0.0000                 0.0000
 Atom AN      X      Y      Z        X      Y      Z        X      Y      Z
   1   6     0.05   0.00  -0.12     0.00   0.00  -0.00     0.01  -0.00   0.01
   2   6     0.06   0.05  -0.04     0.01   0.01  -0.01    -0.16   0.20  -0.06
   3   6     0.12   0.11   0.01    -0.01  -0.00  -0.00     0.01  -0.01  -0.00
   4   6    -0.01  -0.01   0.01     0.03  -0.08   0.01    -0.01  -0.00   0.00
   5   6    -0.00  -0.01  -0.01    -0.11   0.76   0.22     0.00  -0.00   0.00
   6   8     0.00   0.01   0.00     0.05  -0.55  -0.18    -0.00   0.00   0.00
   7   8     0.00   0.00   0.00    -0.01  -0.05  -0.03    -0.00  -0.00  -0.00
   8   1     0.10  -0.26   0.06     0.00  -0.01  -0.00    -0.01  -0.00   0.01
   9   1    -0.12   0.27   0.03    -0.01   0.01   0.00    -0.00   0.00  -0.02
  10   1    -0.19  -0.08   0.39    -0.02  -0.01   0.01    -0.02   0.03  -0.00
  11   1    -0.02  -0.01   0.01    -0.02  -0.01   0.02     0.59  -0.73   0.22
  12   1     0.12  -0.35   0.17     0.00  -0.00   0.00    -0.02  -0.00   0.01
  13   1    -0.15   0.19  -0.21     0.01  -0.00  -0.00     0.01   0.01   0.01
  14   1    -0.47  -0.30   0.06     0.00   0.01   0.01    -0.02   0.03  -0.01
  15   1    -0.01  -0.00   0.00    -0.01   0.04   0.00    -0.00  -0.00  -0.02
  16   1    -0.01   0.00   0.00     0.06  -0.03   0.00     0.01   0.03   0.01
  17   1     0.00   0.00  -0.00     0.04   0.05   0.05    -0.00   0.00  -0.00
                     37                     38                     39
                        a                      a                      a 
 Frequencies --  2996.6083              3009.6151              3023.3000
 Red. masses --     1.6782                 1.8104                 1.8823
 Frc consts  --     0.0000                 0.0000                 0.0000
 IR Inten    --    16.3174                22.8159                60.6339
 Raman Activ --     0.0000                 0.0000                 0.0000
 Depolar     --     0.0000                 0.0000                 0.0000
 Atom AN      X      Y      Z        X      Y      Z        X      Y      Z
   1   6    -0.01   0.00   0.01    -0.01   0.00   0.01     0.01  -0.03   0.04
   2   6    -0.00   0.01  -0.01     0.00  -0.01  -0.00    -0.01   0.01  -0.00
   3   6     0.01  -0.00   0.00     0.01   0.01   0.00    -0.15   0.23  -0.02
   4   6    -0.02   0.02  -0.24    -0.07  -0.24  -0.10    -0.00  -0.00  -0.00
   5   6    -0.00  -0.00  -0.01    -0.00  -0.01  -0.00     0.00  -0.00  -0.00
   6   8     0.00   0.00   0.00     0.00   0.00   0.00    -0.00  -0.00   0.00
   7   8     0.00  -0.00   0.00    -0.00   0.00   0.00    -0.00   0.00   0.00
   8   1     0.02   0.00  -0.01     0.02   0.01  -0.01     0.04   0.01  -0.01
   9   1    -0.00   0.00  -0.02    -0.00   0.00  -0.02    -0.01   0.01  -0.10
  10   1     0.01  -0.01   0.00     0.02  -0.02   0.01    -0.07   0.08  -0.01
  11   1     0.01  -0.02   0.01    -0.02   0.02  -0.01     0.03  -0.03   0.01
  12   1    -0.01  -0.00   0.01    -0.02  -0.00   0.01     0.17   0.05  -0.08
  13   1    -0.00  -0.01  -0.00    -0.02  -0.04  -0.02    -0.12  -0.14  -0.08
  14   1    -0.01   0.02  -0.01    -0.00   0.01  -0.00     0.49  -0.72   0.23
  15   1     0.09   0.05   0.95     0.00  -0.02   0.10     0.00   0.00   0.02
  16   1    -0.04  -0.11  -0.07     0.26   0.88   0.27    -0.00   0.00  -0.00
  17   1    -0.00   0.00  -0.00     0.01  -0.01   0.00    -0.00  -0.00   0.00
                     40                     41                     42
                        a                      a                      a 
 Frequencies --  3032.9535              3035.8558              3037.0455
 Red. masses --     1.9425                 1.9446                 1.9123
 Frc consts  --     0.0000                 0.0000                 0.0000
 IR Inten    --    71.9247                37.7792                74.2062
 Raman Activ --     0.0000                 0.0000                 0.0000
 Depolar     --     0.0000                 0.0000                 0.0000
 Atom AN      X      Y      Z        X      Y      Z        X      Y      Z
   1   6    -0.03   0.11  -0.23     0.25  -0.09  -0.01     0.10  -0.00  -0.14
   2   6    -0.01   0.01  -0.01     0.01  -0.01   0.00     0.01   0.00  -0.00
   3   6    -0.13  -0.05  -0.01    -0.09  -0.08   0.00     0.17   0.15   0.02
   4   6    -0.00  -0.01  -0.01    -0.00  -0.01  -0.01     0.00   0.00  -0.00
   5   6     0.00  -0.00  -0.00    -0.00   0.00  -0.00    -0.00   0.00   0.00
   6   8    -0.00   0.00   0.00     0.00  -0.00   0.00     0.00  -0.00   0.00
   7   8     0.00   0.00   0.00     0.00   0.00   0.00     0.00  -0.00  -0.00
   8   1    -0.23  -0.03   0.08    -0.52  -0.14   0.28    -0.34  -0.08   0.16
   9   1     0.10  -0.06   0.70     0.02  -0.00  -0.13     0.07  -0.04   0.40
  10   1     0.24  -0.27   0.03    -0.37   0.47  -0.11    -0.09   0.13  -0.05
  11   1     0.02  -0.03   0.01    -0.02   0.03  -0.01    -0.00   0.00  -0.00
  12   1     0.27   0.02  -0.12     0.23   0.01  -0.10    -0.35  -0.01   0.16
  13   1     0.13   0.27   0.12     0.12   0.24   0.11    -0.28  -0.54  -0.24
  14   1     0.06  -0.12   0.04    -0.04   0.03  -0.01     0.02   0.03  -0.00
  15   1     0.00   0.00   0.03     0.00  -0.00   0.03     0.00   0.00   0.01
  16   1     0.01   0.03   0.01     0.01   0.04   0.01    -0.00  -0.01  -0.00
  17   1     0.00   0.00  -0.00     0.00  -0.00   0.00    -0.00   0.00  -0.00
                     43                     44                     45
                        a                      a                      a 
 Frequencies --  3043.0713              3045.3146              3343.9376
 Red. masses --     1.3111                 1.2850                 1.8480
 Frc consts  --     0.0000                 0.0000                 0.0000
 IR Inten    --    50.2528                37.2576               174.6013
 Raman Activ --     0.0000                 0.0000                 0.0000
 Depolar     --     0.0000                 0.0000                 0.0000
 Atom AN      X      Y      Z        X      Y      Z        X      Y      Z
   1   6     0.01   0.07   0.03     0.05   0.12   0.02     0.00  -0.00  -0.00
   2   6    -0.00   0.01   0.00     0.00   0.00  -0.00    -0.00   0.00  -0.00
   3   6    -0.06   0.04   0.12     0.05   0.00  -0.07     0.00   0.00   0.00
   4   6     0.00   0.00   0.00    -0.00   0.00   0.00     0.00   0.00  -0.00
   5   6     0.00  -0.00   0.00    -0.00  -0.00  -0.00    -0.01  -0.00  -0.01
   6   8    -0.00   0.00  -0.00    -0.00  -0.00  -0.00    -0.00   0.00   0.00
   7   8     0.00  -0.00  -0.00    -0.00   0.00   0.00    -0.17   0.16  -0.07
   8   1    -0.22  -0.04   0.12    -0.47  -0.09   0.24     0.00  -0.00  -0.00
   9   1    -0.04   0.04  -0.27    -0.05   0.05  -0.39     0.00  -0.00   0.00
  10   1     0.23  -0.26   0.06     0.34  -0.38   0.09    -0.00   0.00  -0.00
  11   1     0.01  -0.01   0.01    -0.00   0.01  -0.00     0.00  -0.00   0.00
  12   1     0.59   0.06  -0.24    -0.40  -0.04   0.16     0.00  -0.00  -0.00
  13   1    -0.23  -0.40  -0.16     0.10   0.17   0.07    -0.00  -0.00  -0.00
  14   1    -0.14   0.20  -0.05     0.11  -0.15   0.04    -0.00   0.00   0.00
  15   1    -0.00   0.00  -0.01     0.00   0.00  -0.01    -0.00  -0.00   0.00
  16   1    -0.01  -0.02  -0.01    -0.00  -0.01  -0.00    -0.00  -0.01  -0.00
  17   1    -0.00   0.00  -0.00     0.00  -0.00   0.00     0.70  -0.61   0.29
