 Entering Gaussian System
 *********************************************
 Gaussian 98:
 frequency output generated by the xtb code
 *********************************************
                         Standard orientation:
 --------------------------------------------------------------------
  Center     Atomic     Atomic              Coordinates (Angstroms)
  Number     Number      Type              X           Y           Z
 --------------------------------------------------------------------
    1          6             0        2.045308   -2.514000    0.216258
    2          8             0        0.809911   -1.850525   -0.018254
    3          6             0        0.663305   -0.515524    0.009761
    4          6             0        1.639833    0.486974    0.037015
    5          6             0        1.284515    1.828872    0.016234
    6          6             0       -0.034823    2.227111   -0.048638
    7          6             0       -1.016860    1.252065   -0.090754
    8          6             0       -0.684633   -0.094830   -0.046137
    9          6             0       -1.756436   -1.137869   -0.077328
   10          8             0       -2.613899   -1.195477   -0.931523
   11          8             0       -1.683456   -1.974428    0.935182
   12         17             0       -2.679399    1.717879   -0.160002
   13         17             0        3.351936    0.169134    0.080559
   14          1             0        2.493055   -2.200458    1.158984
   15          1             0        2.743988   -2.359101   -0.606340
   16          1             0        1.775516   -3.566807    0.271433
   17          1             0        2.066664    2.570261    0.043295
   18          1             0       -0.301086    3.269200   -0.068091
   19          1             0       -2.370844   -2.670199    0.904555
 --------------------------------------------------------------------
     1 basis functions        1 primitive gaussians
     1 alpha electrons        1 beta electrons
 
 Harmonic frequencies (cm**-1), IR intensities (km*mol⁻¹),
 Raman scattering activities (A**4/amu), Raman depolarization ratios,
 reduced masses (AMU), force constants (mDyne/A) and normal coordinates:
                      1                      2                      3
                        a                      a                      a 
 Frequencies --    29.6923                45.5087                77.3788
 Red. masses --    14.7266                16.3212                16.6135
 Frc consts  --     0.0000                 0.0000                 0.0000
 IR Inten    --     4.7832                 5.9155                 6.1395
 Raman Activ --     0.0000                 0.0000                 0.0000
 Depolar     --     0.0000                 0.0000                 0.0000
 Atom AN      X      Y      Z        X      Y      Z        X      Y      Z
   1   6     0.07  -0.04  -0.64     0.04   0.02   0.09    -0.10  -0.02  -0.00
   2   8    -0.05  -0.01   0.08     0.06  -0.00  -0.02     0.01   0.02  -0.53
   3   6    -0.00  -0.01   0.02     0.00  -0.01   0.00    -0.00   0.02  -0.14
   4   6    -0.00  -0.01   0.01    -0.01  -0.01   0.01    -0.00   0.01   0.07
   5   6     0.00  -0.01  -0.10    -0.01  -0.01  -0.02    -0.01   0.01   0.34
   6   6     0.01  -0.00  -0.16    -0.01  -0.02  -0.06    -0.01   0.01   0.27
   7   6     0.00  -0.00  -0.07    -0.01  -0.02  -0.06    -0.00   0.02   0.02
   8   6    -0.00  -0.00   0.01    -0.01  -0.03  -0.01     0.00   0.02  -0.07
   9   6    -0.01   0.01   0.12    -0.03   0.01   0.05     0.03  -0.02   0.10
  10   8    -0.06  -0.05   0.19    -0.44   0.37   0.43    -0.07  -0.20   0.23
  11   8     0.03   0.08   0.20     0.36  -0.41  -0.31     0.18   0.18   0.27
  12  17     0.01   0.01  -0.14     0.03   0.07  -0.16     0.01   0.02  -0.38
  13  17    -0.00   0.03   0.43    -0.01   0.01   0.09    -0.02  -0.05  -0.03
  14   1     0.12  -0.12  -0.20    -0.01   0.02   0.03    -0.12   0.01   0.04
  15   1    -0.07   0.09  -0.24     0.03  -0.00   0.04     0.06  -0.03   0.07
  16   1     0.04  -0.02  -0.28     0.01   0.01   0.03    -0.04  -0.00  -0.01
  17   1     0.00  -0.00  -0.04    -0.00  -0.00  -0.00    -0.01   0.00   0.16
  18   1     0.00  -0.00  -0.07    -0.00  -0.01  -0.03    -0.00   0.00   0.12
  19   1     0.01   0.02   0.07     0.08  -0.09  -0.08     0.05   0.04   0.12
                      4                      5                      6
                        a                      a                      a 
 Frequencies --    85.9754               144.5434               186.4954
 Red. masses --    21.2836                19.1659                21.7838
 Frc consts  --     0.0000                 0.0000                 0.0000
 IR Inten    --     0.9169                 0.2461                 0.6575
 Raman Activ --     0.0000                 0.0000                 0.0000
 Depolar     --     0.0000                 0.0000                 0.0000
 Atom AN      X      Y      Z        X      Y      Z        X      Y      Z
   1   6     0.09   0.01  -0.17     0.18   0.03   0.03    -0.25  -0.15  -0.03
   2   8    -0.02  -0.01   0.42     0.15  -0.09  -0.09    -0.09   0.16  -0.08
   3   6    -0.01  -0.01   0.23     0.08  -0.09  -0.08     0.05   0.15   0.10
   4   6    -0.01  -0.01   0.15     0.05  -0.05  -0.02     0.05   0.13   0.04
   5   6    -0.01  -0.01   0.27     0.01  -0.05   0.05     0.03   0.14  -0.06
   6   6    -0.01  -0.01   0.29     0.01  -0.06   0.05     0.01   0.15  -0.07
   7   6    -0.01  -0.01   0.14     0.05  -0.10  -0.04     0.02   0.13   0.08
   8   6    -0.01  -0.01   0.18     0.08  -0.09  -0.11     0.08   0.17   0.20
   9   6    -0.02   0.00   0.05    -0.14   0.13  -0.02     0.13   0.15   0.08
  10   8     0.04   0.10  -0.02    -0.27   0.41   0.07     0.23   0.29   0.01
  11   8    -0.11  -0.11  -0.03    -0.42   0.26   0.08     0.12   0.02  -0.04
  12  17     0.03   0.02  -0.44     0.02  -0.43  -0.00    -0.18  -0.55  -0.08
  13  17     0.01   0.03  -0.44     0.16   0.18   0.01    -0.03  -0.26  -0.01
  14   1     0.13  -0.01  -0.09     0.02   0.03   0.01    -0.07  -0.10   0.01
  15   1    -0.07   0.02  -0.13     0.06   0.02   0.02    -0.04  -0.06   0.01
  16   1     0.04  -0.00  -0.04     0.08   0.00   0.02    -0.14  -0.03  -0.05
  17   1    -0.00  -0.00   0.08    -0.00  -0.01   0.03     0.01   0.04  -0.05
  18   1    -0.00  -0.00   0.10    -0.00  -0.02   0.03     0.01   0.04  -0.06
  19   1    -0.03  -0.02  -0.04    -0.17   0.13   0.06     0.04  -0.00  -0.05
                      7                      8                      9
                        a                      a                      a 
 Frequencies --   195.8134               235.3446               259.4081
 Red. masses --    15.4023                21.4935                 3.1631
 Frc consts  --     0.0000                 0.0000                 0.0000
 IR Inten    --     2.7265                 1.3246                 0.1013
 Raman Activ --     0.0000                 0.0000                 0.0000
 Depolar     --     0.0000                 0.0000                 0.0000
 Atom AN      X      Y      Z        X      Y      Z        X      Y      Z
   1   6     0.01   0.02   0.00     0.41   0.31  -0.02     0.10   0.00   0.06
   2   8    -0.05   0.03   0.42     0.34   0.12  -0.12     0.09   0.00   0.14
   3   6     0.00   0.03  -0.11    -0.00   0.07   0.01     0.00  -0.00   0.05
   4   6     0.00   0.02  -0.04    -0.06   0.10   0.02    -0.03   0.03   0.01
   5   6     0.01   0.03   0.13    -0.01   0.10  -0.02    -0.01   0.03   0.01
   6   6     0.01   0.06   0.16    -0.04   0.04  -0.04    -0.01   0.02   0.01
   7   6     0.01   0.06  -0.17    -0.02   0.01   0.03     0.01  -0.00  -0.04
   8   6     0.03   0.07  -0.42    -0.02  -0.00   0.08     0.01  -0.01  -0.06
   9   6     0.02   0.08  -0.22    -0.02   0.01   0.04    -0.01   0.02  -0.04
  10   8    -0.21  -0.10   0.01     0.03   0.03  -0.01    -0.04  -0.01  -0.01
  11   8     0.35   0.32  -0.09    -0.10  -0.01   0.04     0.04   0.07  -0.01
  12  17    -0.09  -0.19   0.13    -0.04   0.04  -0.02     0.02   0.01   0.02
  13  17    -0.05  -0.21  -0.01    -0.32  -0.56   0.04    -0.13  -0.10  -0.10
  14   1     0.12   0.04  -0.07     0.14   0.18  -0.05    -0.24  -0.39   0.28
  15   1    -0.09  -0.05  -0.09     0.08   0.02  -0.05     0.23   0.42   0.27
  16   1    -0.01   0.01   0.08     0.15   0.09   0.10     0.10  -0.05  -0.54
  17   1     0.00   0.01   0.10    -0.01   0.03  -0.02    -0.00   0.01   0.00
  18   1     0.00   0.02   0.13    -0.02   0.01  -0.03    -0.01   0.00   0.01
  19   1     0.10   0.07   0.07    -0.02  -0.00  -0.01     0.01   0.01   0.02
                     10                     11                     12
                        a                      a                      a 
 Frequencies --   292.5082               298.3202               313.5406
 Red. masses --    21.0169                16.5311                19.9613
 Frc consts  --     0.0000                 0.0000                 0.0000
 IR Inten    --     1.0394                 1.5545                 2.1735
 Raman Activ --     0.0000                 0.0000                 0.0000
 Depolar     --     0.0000                 0.0000                 0.0000
 Atom AN      X      Y      Z        X      Y      Z        X      Y      Z
   1   6    -0.00  -0.33  -0.02     0.01  -0.21   0.04    -0.08   0.41  -0.02
   2   8     0.16  -0.04  -0.04     0.09  -0.05   0.09    -0.31  -0.01  -0.04
   3   6     0.05  -0.03   0.11     0.05  -0.03  -0.17    -0.18  -0.02   0.02
   4   6    -0.14   0.12   0.30    -0.07   0.08  -0.48    -0.10  -0.10   0.02
   5   6    -0.05   0.14   0.20    -0.02   0.10  -0.29     0.14  -0.05  -0.02
   6   6    -0.02   0.07  -0.25    -0.05   0.07   0.38     0.20   0.10  -0.01
   7   6     0.12  -0.06  -0.22     0.06  -0.03   0.30     0.18   0.11   0.07
   8   6     0.06  -0.07  -0.04     0.05  -0.04   0.00    -0.10   0.07   0.07
   9   6     0.02  -0.01  -0.02     0.03  -0.00   0.02    -0.11   0.02   0.01
  10   8    -0.01   0.01  -0.00     0.04   0.05   0.01    -0.09  -0.16  -0.02
  11   8     0.00   0.03   0.01     0.00  -0.01   0.02     0.02  -0.04  -0.05
  12  17     0.37  -0.03   0.12     0.24  -0.01  -0.13     0.45  -0.34   0.00
  13  17    -0.48   0.17  -0.12    -0.35   0.10   0.15    -0.20   0.10  -0.00
  14   1     0.06  -0.09  -0.03     0.03  -0.08   0.00    -0.07   0.17  -0.00
  15   1    -0.01  -0.19  -0.03     0.00  -0.10   0.00    -0.03   0.19  -0.00
  16   1    -0.09  -0.07   0.05    -0.05  -0.05   0.02     0.10   0.09  -0.00
  17   1    -0.01   0.03   0.09     0.00   0.02  -0.13     0.08  -0.05  -0.02
  18   1    -0.04   0.01  -0.13    -0.04   0.01   0.21     0.07   0.03  -0.02
  19   1    -0.01   0.02   0.02    -0.01   0.01   0.01     0.05  -0.05  -0.04
                     13                     14                     15
                        a                      a                      a 
 Frequencies --   329.6285               375.4999               446.3180
 Red. masses --    15.8262                12.5809                13.7970
 Frc consts  --     0.0000                 0.0000                 0.0000
 IR Inten    --     1.0327                 1.8907                 9.7824
 Raman Activ --     0.0000                 0.0000                 0.0000
 Depolar     --     0.0000                 0.0000                 0.0000
 Atom AN      X      Y      Z        X      Y      Z        X      Y      Z
   1   6     0.16   0.02   0.02    -0.06   0.14   0.01    -0.18   0.23  -0.04
   2   8    -0.04  -0.36  -0.08    -0.17  -0.03   0.14    -0.20   0.10  -0.02
   3   6    -0.07  -0.28   0.05     0.02  -0.01  -0.34     0.06   0.07   0.11
   4   6    -0.12  -0.28   0.06    -0.00  -0.01  -0.32     0.02   0.08   0.18
   5   6    -0.08  -0.27  -0.03    -0.05  -0.01   0.30    -0.21   0.02  -0.15
   6   6     0.00  -0.03  -0.03    -0.03  -0.02  -0.05    -0.28  -0.25   0.06
   7   6    -0.05   0.05   0.07     0.00  -0.03  -0.40    -0.13  -0.33   0.07
   8   6     0.05   0.06   0.10     0.06  -0.00  -0.05     0.08  -0.20  -0.12
   9   6     0.11   0.18   0.01     0.16  -0.04   0.21     0.17  -0.14  -0.11
  10   8     0.24   0.28  -0.09     0.34   0.23   0.08     0.09   0.27  -0.04
  11   8     0.34   0.26   0.01    -0.10  -0.24   0.12     0.15   0.10   0.08
  12  17    -0.19   0.07  -0.02     0.02   0.02   0.06     0.30   0.04   0.00
  13  17    -0.24   0.13  -0.01    -0.11  -0.02   0.03     0.03  -0.10  -0.02
  14   1     0.02   0.08  -0.00    -0.03   0.04   0.01    -0.06   0.08  -0.01
  15   1     0.03   0.04   0.00    -0.03   0.09   0.00    -0.06   0.09  -0.01
  16   1     0.14  -0.02   0.04     0.04   0.03  -0.02    -0.01   0.05  -0.01
  17   1     0.01  -0.11  -0.03    -0.02  -0.00   0.27    -0.11   0.06  -0.12
  18   1     0.05   0.00  -0.04    -0.01  -0.01   0.06    -0.14  -0.09   0.01
  19   1     0.13   0.02   0.03    -0.06  -0.02  -0.04    -0.05   0.10   0.16
                     16                     17                     18
                        a                      a                      a 
 Frequencies --   513.6337               546.4985               559.6676
 Red. masses --    15.0777                11.5394                14.0181
 Frc consts  --     0.0000                 0.0000                 0.0000
 IR Inten    --    14.8240                 4.3813                41.2665
 Raman Activ --     0.0000                 0.0000                 0.0000
 Depolar     --     0.0000                 0.0000                 0.0000
 Atom AN      X      Y      Z        X      Y      Z        X      Y      Z
   1   6     0.05  -0.07   0.02    -0.03   0.02   0.02     0.08  -0.04   0.01
   2   8     0.06  -0.02   0.04    -0.06  -0.03   0.16    -0.11  -0.31  -0.01
   3   6    -0.09  -0.02  -0.08     0.09   0.01  -0.48     0.02  -0.16  -0.14
   4   6    -0.09   0.05  -0.29     0.05   0.03   0.10    -0.15   0.06   0.25
   5   6    -0.27   0.04   0.22     0.07   0.04   0.20    -0.32   0.09  -0.13
   6   6    -0.25   0.04  -0.20     0.07  -0.04  -0.34    -0.26   0.41   0.05
   7   6    -0.10  -0.05   0.08     0.01  -0.03   0.63    -0.01   0.18   0.04
   8   6    -0.15  -0.01   0.32     0.08  -0.03  -0.06     0.11   0.14  -0.19
   9   6    -0.27   0.13   0.04     0.07  -0.07  -0.08     0.13   0.09   0.06
  10   8    -0.08   0.00  -0.19    -0.03  -0.01   0.03     0.06  -0.12   0.18
  11   8     0.15   0.18  -0.01     0.00  -0.01  -0.03    -0.14  -0.10  -0.06
  12  17     0.28  -0.05   0.01    -0.08   0.03  -0.06     0.14  -0.01  -0.00
  13  17     0.30  -0.09   0.03    -0.09   0.01  -0.02     0.24  -0.12  -0.01
  14   1     0.02  -0.03   0.01    -0.00  -0.01   0.01    -0.01   0.04   0.00
  15   1     0.02  -0.03   0.01    -0.02   0.03   0.00     0.01   0.04   0.00
  16   1    -0.00  -0.02   0.00     0.00   0.00  -0.01     0.11  -0.03   0.01
  17   1    -0.10   0.03   0.16     0.02   0.02   0.08    -0.07   0.01  -0.08
  18   1    -0.10   0.00  -0.10     0.02  -0.01  -0.25    -0.08   0.12   0.01
  19   1     0.24  -0.16  -0.02    -0.10   0.09   0.08    -0.10   0.04  -0.15
                     19                     20                     21
                        a                      a                      a 
 Frequencies --   605.1818               641.0959               650.8496
 Red. masses --     8.3637                 8.7204                12.7706
 Frc consts  --     0.0000                 0.0000                 0.0000
 IR Inten    --   112.4663               146.1011                 6.1800
 Raman Activ --     0.0000                 0.0000                 0.0000
 Depolar     --     0.0000                 0.0000                 0.0000
 Atom AN      X      Y      Z        X      Y      Z        X      Y      Z
   1   6    -0.01   0.03  -0.01     0.07  -0.07   0.01    -0.01   0.01  -0.00
   2   8    -0.07  -0.12  -0.08     0.08   0.04   0.04    -0.21  -0.38  -0.04
   3   6     0.06  -0.07   0.40    -0.21   0.01  -0.22     0.11  -0.12   0.07
   4   6     0.02   0.02  -0.41    -0.16  -0.02   0.16    -0.04   0.26  -0.02
   5   6    -0.06   0.04   0.18     0.03   0.02  -0.09     0.22   0.44  -0.00
   6   6    -0.03   0.11  -0.12     0.05   0.15   0.08     0.09   0.13   0.02
   7   6     0.03   0.03   0.02     0.03   0.12  -0.10     0.23  -0.11  -0.05
   8   6     0.12   0.03   0.19    -0.24   0.01   0.06     0.07  -0.19   0.06
   9   6     0.17  -0.04  -0.18    -0.21  -0.16   0.08    -0.12  -0.20  -0.06
  10   8    -0.09  -0.15   0.09     0.06   0.16  -0.25    -0.09   0.12  -0.15
  11   8     0.05  -0.00  -0.20     0.23  -0.22   0.09     0.03   0.01   0.15
  12  17    -0.03   0.02   0.01     0.02  -0.04   0.00    -0.22   0.07  -0.00
  13  17    -0.00  -0.02   0.03     0.14  -0.00  -0.00     0.05  -0.04   0.00
  14   1    -0.02   0.05  -0.01     0.03  -0.05   0.01    -0.04   0.09  -0.01
  15   1    -0.01   0.03  -0.00     0.03  -0.04   0.01    -0.02   0.08  -0.00
  16   1     0.05  -0.00   0.02    -0.03  -0.01  -0.01     0.15  -0.03   0.03
  17   1    -0.01   0.01   0.09     0.04  -0.03  -0.03     0.07   0.12   0.00
  18   1    -0.01   0.03  -0.04     0.03   0.05   0.03    -0.08   0.01   0.01
  19   1    -0.39   0.39   0.23    -0.28   0.26   0.51     0.19  -0.18   0.08
                     22                     23                     24
                        a                      a                      a 
 Frequencies --   683.8320               734.3911               808.3290
 Red. masses --    12.2923                11.9372                12.0585
 Frc consts  --     0.0000                 0.0000                 0.0000
 IR Inten    --    20.8546                74.6622                53.6356
 Raman Activ --     0.0000                 0.0000                 0.0000
 Depolar     --     0.0000                 0.0000                 0.0000
 Atom AN      X      Y      Z        X      Y      Z        X      Y      Z
   1   6    -0.03   0.03   0.00    -0.02   0.01  -0.01    -0.17   0.14  -0.03
   2   8    -0.07  -0.07   0.06    -0.04  -0.07  -0.04     0.07   0.13   0.02
   3   6     0.18  -0.01  -0.39     0.04  -0.03   0.16     0.37  -0.05   0.03
   4   6     0.12   0.06   0.22     0.03   0.09  -0.03     0.28  -0.13   0.01
   5   6     0.03   0.05  -0.15     0.08   0.13   0.03    -0.27  -0.28  -0.02
   6   6    -0.03  -0.16   0.17     0.00  -0.18  -0.05    -0.09   0.33  -0.01
   7   6     0.01  -0.14  -0.27     0.01  -0.15   0.12     0.24  -0.00   0.01
   8   6     0.12  -0.01   0.55     0.03  -0.07  -0.35     0.31  -0.06  -0.00
   9   6    -0.05   0.23   0.01    -0.38   0.49   0.43    -0.27  -0.02   0.07
  10   8    -0.07  -0.21   0.05     0.19  -0.12  -0.07    -0.11  -0.01  -0.19
  11   8     0.05   0.13  -0.25     0.12  -0.12  -0.15     0.02  -0.13   0.09
  12  17    -0.03   0.03   0.01    -0.03   0.01  -0.01    -0.08   0.05  -0.00
  13  17    -0.09  -0.00  -0.00    -0.01  -0.00  -0.00    -0.13  -0.00  -0.00
  14   1    -0.02   0.02   0.00    -0.02   0.03  -0.00    -0.03   0.02  -0.01
  15   1    -0.02   0.03  -0.00    -0.01   0.02  -0.00    -0.03   0.02  -0.00
  16   1     0.03  -0.00   0.00     0.03  -0.01   0.01    -0.06   0.04  -0.01
  17   1    -0.03   0.05  -0.01    -0.01   0.07  -0.00    -0.05  -0.10   0.01
  18   1    -0.04  -0.05   0.02    -0.06  -0.07   0.03     0.04   0.11   0.02
  19   1    -0.11   0.15  -0.01    -0.13   0.13   0.01     0.07  -0.10   0.18
                     25                     26                     27
                        a                      a                      a 
 Frequencies --   824.6645               860.0181               899.6169
 Red. masses --     3.5485                12.5913                 3.4618
 Frc consts  --     0.0000                 0.0000                 0.0000
 IR Inten    --    28.1933                36.4986                 0.7583
 Raman Activ --     0.0000                 0.0000                 0.0000
 Depolar     --     0.0000                 0.0000                 0.0000
 Atom AN      X      Y      Z        X      Y      Z        X      Y      Z
   1   6    -0.00   0.00   0.00    -0.18   0.16  -0.03     0.00   0.00   0.00
   2   8     0.00   0.01   0.02     0.20   0.23   0.05     0.00   0.00   0.01
   3   6     0.01  -0.00  -0.04    -0.13  -0.21  -0.04     0.00  -0.00  -0.08
   4   6     0.01  -0.00  -0.13    -0.48  -0.08  -0.01    -0.01  -0.00  -0.01
   5   6    -0.02  -0.00   0.27    -0.01   0.01  -0.01    -0.02   0.00   0.36
   6   6    -0.02   0.01   0.34     0.04   0.14   0.01     0.01  -0.00  -0.28
   7   6     0.01  -0.00  -0.13     0.42  -0.26   0.02     0.01  -0.00  -0.03
   8   6     0.01  -0.01  -0.05     0.00  -0.27   0.04    -0.00  -0.00   0.07
   9   6    -0.03   0.02   0.03     0.10   0.07   0.01     0.00  -0.00  -0.01
  10   8     0.01   0.00  -0.01     0.09  -0.02   0.11    -0.00  -0.00   0.00
  11   8     0.00  -0.02   0.01     0.01   0.12  -0.10     0.00   0.01  -0.01
  12  17    -0.00   0.00   0.02    -0.16   0.06  -0.01    -0.00   0.00  -0.00
  13  17    -0.00  -0.00   0.01     0.15  -0.01   0.00     0.00  -0.00   0.01
  14   1     0.00  -0.00  -0.00    -0.00  -0.04  -0.00     0.00  -0.00   0.00
  15   1    -0.00   0.00  -0.00    -0.02  -0.03  -0.00    -0.00   0.00  -0.00
  16   1    -0.00   0.00  -0.00    -0.18   0.07  -0.03    -0.00   0.00  -0.00
  17   1     0.02  -0.01  -0.52     0.10  -0.11   0.02     0.03  -0.01  -0.70
  18   1     0.03  -0.00  -0.71    -0.11   0.01  -0.01    -0.03   0.00   0.53
  19   1    -0.00  -0.00   0.00    -0.03   0.06  -0.14     0.00   0.00   0.00
                     28                     29                     30
                        a                      a                      a 
 Frequencies --  1019.1745              1087.5706              1099.0701
 Red. masses --    12.3904                 8.3395                 4.3956
 Frc consts  --     0.0000                 0.0000                 0.0000
 IR Inten    --   158.3046               202.8777                14.7046
 Raman Activ --     0.0000                 0.0000                 0.0000
 Depolar     --     0.0000                 0.0000                 0.0000
 Atom AN      X      Y      Z        X      Y      Z        X      Y      Z
   1   6     0.39  -0.28   0.08     0.17  -0.14   0.07    -0.03  -0.01   0.40
   2   8    -0.42   0.20  -0.08    -0.22   0.24  -0.05    -0.01   0.05  -0.20
   3   6    -0.15   0.29  -0.01     0.10  -0.02   0.01     0.04  -0.04  -0.01
   4   6     0.23  -0.05   0.01    -0.36   0.06  -0.01    -0.07   0.02  -0.00
   5   6    -0.11  -0.13  -0.00    -0.03  -0.03  -0.00    -0.00  -0.00  -0.00
   6   6    -0.03   0.15  -0.00     0.05  -0.14   0.01     0.01  -0.03  -0.00
   7   6     0.38  -0.19   0.02    -0.04  -0.01  -0.00    -0.01   0.01   0.00
   8   6    -0.17  -0.16  -0.01     0.29   0.14  -0.02     0.07   0.02   0.02
   9   6     0.01  -0.03   0.04     0.01   0.03   0.04    -0.01   0.05  -0.06
  10   8     0.06   0.01   0.05     0.06  -0.05   0.12    -0.07   0.00  -0.09
  11   8     0.03   0.08  -0.06    -0.21   0.01  -0.26     0.07  -0.08   0.16
  12  17    -0.08   0.02  -0.00    -0.00   0.00  -0.00     0.00   0.00  -0.00
  13  17    -0.03   0.01  -0.00     0.05  -0.01   0.00     0.01  -0.00  -0.00
  14   1     0.04   0.01   0.01     0.05   0.01  -0.01     0.48  -0.23  -0.07
  15   1     0.04   0.02  -0.00    -0.03   0.05  -0.02    -0.47   0.27  -0.25
  16   1     0.16  -0.08   0.03     0.07  -0.04  -0.01     0.08  -0.04  -0.21
  17   1    -0.04  -0.03   0.00     0.08  -0.10   0.00     0.01  -0.02   0.01
  18   1    -0.13   0.01  -0.01     0.08  -0.02   0.00     0.02  -0.00   0.00
  19   1    -0.03   0.06  -0.10     0.20  -0.27   0.53    -0.06   0.07  -0.15
                     31                     32                     33
                        a                      a                      a 
 Frequencies --  1104.0284              1133.0379              1147.2203
 Red. masses --    10.7669                 5.3344                 3.8156
 Frc consts  --     0.0000                 0.0000                 0.0000
 IR Inten    --   102.0856                18.2808                 7.8701
 Raman Activ --     0.0000                 0.0000                 0.0000
 Depolar     --     0.0000                 0.0000                 0.0000
 Atom AN      X      Y      Z        X      Y      Z        X      Y      Z
   1   6    -0.16   0.15   0.10    -0.27  -0.22  -0.03    -0.14  -0.15  -0.02
   2   8     0.20  -0.25  -0.04     0.23   0.05   0.03     0.14   0.11   0.02
   3   6    -0.17   0.06   0.00     0.06   0.11  -0.01     0.08   0.02  -0.01
   4   6     0.33  -0.07   0.01    -0.08   0.14  -0.00     0.06  -0.20   0.00
   5   6     0.04   0.02   0.00    -0.12  -0.07  -0.00     0.19   0.05   0.01
   6   6    -0.05   0.13   0.00     0.08   0.03   0.00    -0.09   0.14  -0.00
   7   6     0.04   0.01   0.00    -0.03  -0.04  -0.00    -0.19  -0.02  -0.01
   8   6    -0.23  -0.10  -0.04    -0.15  -0.17  -0.01    -0.05   0.08  -0.00
   9   6     0.03  -0.13   0.14    -0.03  -0.11   0.09     0.01   0.03  -0.01
  10   8     0.19  -0.00   0.22     0.07   0.02   0.06    -0.01  -0.00  -0.01
  11   8    -0.15   0.20  -0.39     0.01   0.12  -0.12    -0.01  -0.02   0.01
  12  17     0.00  -0.00  -0.00     0.00  -0.00  -0.00     0.03  -0.01   0.00
  13  17    -0.04   0.01  -0.00     0.01  -0.01   0.00    -0.02   0.01  -0.00
  14   1     0.18  -0.14  -0.02    -0.14   0.26  -0.07    -0.09   0.16  -0.04
  15   1    -0.15   0.02  -0.08    -0.13   0.26  -0.00    -0.07   0.16   0.00
  16   1    -0.08   0.04  -0.09     0.44  -0.18   0.08     0.27  -0.11   0.05
  17   1    -0.07   0.10  -0.01    -0.04  -0.01  -0.00     0.37  -0.32   0.02
  18   1    -0.12   0.01  -0.01     0.46   0.12   0.02    -0.59  -0.10  -0.03
  19   1     0.13  -0.14   0.32    -0.02   0.04  -0.06     0.01  -0.01   0.03
                     34                     35                     36
                        a                      a                      a 
 Frequencies --  1169.9049              1243.6264              1254.4929
 Red. masses --     6.9466                 9.9094                10.5930
 Frc consts  --     0.0000                 0.0000                 0.0000
 IR Inten    --    33.6459               147.3692               362.1306
 Raman Activ --     0.0000                 0.0000                 0.0000
 Depolar     --     0.0000                 0.0000                 0.0000
 Atom AN      X      Y      Z        X      Y      Z        X      Y      Z
   1   6     0.15   0.09   0.03    -0.09   0.10  -0.02     0.01   0.02   0.00
   2   8    -0.18  -0.04  -0.03     0.10  -0.36   0.01    -0.02  -0.01  -0.01
   3   6     0.19   0.05   0.02    -0.14   0.43   0.00     0.20   0.03   0.02
   4   6     0.01   0.03   0.00    -0.06   0.41  -0.00    -0.18  -0.03  -0.00
   5   6     0.07   0.08   0.00    -0.17  -0.23  -0.01    -0.09  -0.05  -0.00
   6   6    -0.04   0.23  -0.00    -0.04  -0.21  -0.00     0.15  -0.13   0.01
   7   6    -0.40  -0.14  -0.02     0.25   0.04   0.01     0.07   0.14  -0.00
   8   6    -0.03  -0.25   0.00     0.08   0.10   0.00     0.11   0.27  -0.02
   9   6    -0.09  -0.15   0.14     0.00   0.04  -0.04    -0.24  -0.57   0.33
  10   8     0.05   0.01   0.02    -0.03  -0.01  -0.02     0.02   0.05  -0.02
  11   8     0.04   0.14  -0.11    -0.00  -0.05   0.04     0.07   0.25  -0.19
  12  17     0.05  -0.01   0.00    -0.03   0.01  -0.00    -0.01  -0.00  -0.00
  13  17    -0.00   0.00  -0.00     0.03  -0.01   0.00     0.01  -0.01   0.00
  14   1     0.07  -0.12   0.04     0.03  -0.08   0.01     0.02  -0.01   0.00
  15   1     0.05  -0.12  -0.01     0.02  -0.07   0.01     0.01  -0.01   0.00
  16   1    -0.19   0.08  -0.04     0.01   0.01  -0.00    -0.02   0.01  -0.01
  17   1     0.39  -0.36   0.02     0.26  -0.40   0.02    -0.10   0.06  -0.01
  18   1     0.29   0.15   0.01    -0.03  -0.07  -0.00    -0.24  -0.11  -0.01
  19   1    -0.03   0.07  -0.13    -0.00  -0.01   0.01    -0.07   0.14  -0.24
                     37                     38                     39
                        a                      a                      a 
 Frequencies --  1301.3436              1373.0581              1392.1432
 Red. masses --    11.9763                 8.2171                 6.2074
 Frc consts  --     0.0000                 0.0000                 0.0000
 IR Inten    --    98.4619               126.0445                22.9085
 Raman Activ --     0.0000                 0.0000                 0.0000
 Depolar     --     0.0000                 0.0000                 0.0000
 Atom AN      X      Y      Z        X      Y      Z        X      Y      Z
   1   6    -0.02   0.07   0.00    -0.18   0.09  -0.04    -0.17   0.14  -0.04
   2   8     0.01  -0.15  -0.01     0.02  -0.05  -0.00    -0.14   0.12  -0.02
   3   6     0.42   0.23   0.02    -0.27   0.31  -0.01     0.22  -0.18   0.00
   4   6    -0.13  -0.26  -0.00    -0.08  -0.34  -0.00    -0.04   0.23  -0.00
   5   6    -0.31   0.19  -0.02     0.12   0.12   0.01    -0.00  -0.19   0.00
   6   6     0.37   0.03   0.02    -0.09   0.12  -0.00     0.12  -0.00   0.00
   7   6     0.02  -0.31   0.01    -0.07  -0.28  -0.00    -0.05   0.26  -0.00
   8   6    -0.41   0.25  -0.03     0.38   0.13   0.02    -0.21  -0.26  -0.00
   9   6     0.08   0.13  -0.10    -0.05  -0.05   0.04     0.04   0.07  -0.03
  10   8     0.01  -0.00   0.02    -0.04  -0.01  -0.04     0.03   0.00   0.03
  11   8    -0.03  -0.07   0.05     0.01  -0.01   0.01    -0.00   0.00  -0.01
  12  17    -0.01  -0.01  -0.00    -0.00   0.01  -0.00     0.01  -0.01   0.00
  13  17     0.01  -0.01   0.00     0.01   0.01   0.00     0.00  -0.00  -0.00
  14   1     0.03  -0.06   0.01     0.22  -0.22  -0.04     0.30  -0.30  -0.05
  15   1     0.02  -0.05   0.00     0.19  -0.18   0.13     0.26  -0.25   0.18
  16   1    -0.01   0.01  -0.01     0.34  -0.09   0.07     0.39  -0.08   0.08
  17   1    -0.03  -0.01  -0.00    -0.04   0.12  -0.00    -0.06   0.01  -0.00
  18   1    -0.00  -0.02  -0.00     0.11   0.08   0.01    -0.16  -0.05  -0.01
  19   1     0.01  -0.03   0.07    -0.01   0.01  -0.03     0.01  -0.00   0.02
                     40                     41                     42
                        a                      a                      a 
 Frequencies --  1415.5266              1451.4797              1456.9702
 Red. masses --     9.8102                 1.5775                 1.5916
 Frc consts  --     0.0000                 0.0000                 0.0000
 IR Inten    --   383.8375                22.9914                36.9610
 Raman Activ --     0.0000                 0.0000                 0.0000
 Depolar     --     0.0000                 0.0000                 0.0000
 Atom AN      X      Y      Z        X      Y      Z        X      Y      Z
   1   6    -0.07   0.02  -0.01     0.09   0.06  -0.19     0.09   0.16   0.10
   2   8    -0.02   0.16  -0.00     0.02   0.02  -0.03     0.02   0.05   0.02
   3   6    -0.05  -0.40  -0.00     0.00  -0.03  -0.00    -0.00  -0.04  -0.00
   4   6     0.27  -0.03   0.01     0.01  -0.01   0.00     0.00  -0.02  -0.00
   5   6    -0.15   0.33  -0.01    -0.00   0.02  -0.00     0.00   0.03   0.00
   6   6    -0.27  -0.26  -0.01    -0.02  -0.02  -0.00    -0.03  -0.02  -0.00
   7   6     0.28  -0.05   0.02     0.01   0.01   0.00     0.02   0.02   0.00
   8   6    -0.17   0.36  -0.03    -0.01   0.01  -0.00    -0.00   0.01  -0.00
   9   6    -0.01  -0.11   0.02    -0.00  -0.01   0.00     0.00  -0.01   0.01
  10   8     0.01   0.02   0.01     0.00   0.00   0.00    -0.00   0.00  -0.00
  11   8    -0.01   0.02  -0.02    -0.00   0.00  -0.00     0.00   0.00  -0.00
  12  17    -0.01   0.00  -0.00     0.00  -0.00  -0.00     0.00  -0.00  -0.00
  13  17    -0.02   0.00  -0.00     0.00   0.00  -0.00     0.00   0.01   0.00
  14   1     0.12  -0.05  -0.05    -0.22  -0.53   0.27    -0.41  -0.06   0.23
  15   1     0.11  -0.05   0.09    -0.22   0.24  -0.15    -0.29  -0.55  -0.35
  16   1     0.12  -0.03   0.02     0.05   0.03   0.64     0.34  -0.09  -0.29
  17   1     0.24  -0.20   0.01     0.01  -0.00   0.00     0.01  -0.00   0.00
  18   1     0.24   0.00   0.01     0.01  -0.00   0.00     0.02   0.00   0.00
  19   1    -0.01   0.01  -0.01     0.00  -0.00   0.00    -0.00   0.00  -0.00
                     43                     44                     45
                        a                      a                      a 
 Frequencies --  1537.8677              1559.7136              1699.9772
 Red. masses --    11.6760                11.8514                13.3949
 Frc consts  --     0.0000                 0.0000                 0.0000
 IR Inten    --    29.6478               191.7191               728.5171
 Raman Activ --     0.0000                 0.0000                 0.0000
 Depolar     --     0.0000                 0.0000                 0.0000
 Atom AN      X      Y      Z        X      Y      Z        X      Y      Z
   1   6     0.01   0.01   0.00     0.01  -0.01   0.00    -0.00   0.00  -0.00
   2   8    -0.02  -0.08  -0.00    -0.01  -0.03  -0.00     0.00  -0.01  -0.00
   3   6     0.38   0.17   0.02     0.08   0.25   0.00    -0.01   0.00  -0.00
   4   6    -0.24  -0.09  -0.01    -0.06  -0.43  -0.00     0.00   0.01   0.00
   5   6     0.46  -0.20   0.02    -0.19   0.36  -0.01     0.00  -0.00  -0.00
   6   6    -0.58  -0.02  -0.03    -0.09  -0.26  -0.00    -0.00   0.01   0.00
   7   6     0.21   0.04   0.01     0.12   0.53   0.00     0.02  -0.01   0.00
   8   6    -0.26   0.11  -0.02     0.09  -0.43   0.02    -0.06  -0.03  -0.01
   9   6     0.01  -0.00  -0.02     0.01   0.05  -0.00     0.57   0.05   0.55
  10   8     0.01   0.01   0.01     0.00  -0.01   0.00    -0.42  -0.04  -0.42
  11   8    -0.01  -0.00   0.00     0.01   0.00  -0.00    -0.03   0.03  -0.07
  12  17     0.00   0.00   0.00    -0.01  -0.01  -0.00    -0.00   0.00  -0.00
  13  17     0.00   0.01  -0.00     0.01   0.00   0.00     0.00   0.00  -0.00
  14   1     0.00   0.00   0.00     0.01   0.02  -0.01     0.00  -0.00  -0.00
  15   1     0.00   0.00  -0.00     0.00   0.02   0.00    -0.00   0.00   0.00
  16   1    -0.03   0.01  -0.01    -0.02   0.00  -0.00     0.00   0.00   0.00
  17   1    -0.04   0.12  -0.00     0.08  -0.05   0.00    -0.00   0.00  -0.00
  18   1     0.11   0.06   0.00     0.04  -0.05   0.00     0.01   0.00  -0.00
  19   1    -0.00  -0.00   0.01     0.01  -0.00   0.00     0.02  -0.03   0.06
                     46                     47                     48
                        a                      a                      a 
 Frequencies --  2987.8667              2996.3308              3030.2889
 Red. masses --     1.7885                 1.6399                 1.7054
 Frc consts  --     0.0000                 0.0000                 0.0000
 IR Inten    --    28.4778                25.9112                 7.7465
 Raman Activ --     0.0000                 0.0000                 0.0000
 Depolar     --     0.0000                 0.0000                 0.0000
 Atom AN      X      Y      Z        X      Y      Z        X      Y      Z
   1   6     0.14   0.04  -0.22    -0.11  -0.08  -0.19    -0.06  -0.24   0.00
   2   8     0.01  -0.01  -0.00    -0.01   0.01  -0.01     0.01  -0.01   0.00
   3   6    -0.00   0.00   0.00     0.00  -0.00   0.00    -0.00   0.00   0.00
   4   6     0.00  -0.00  -0.00    -0.00   0.00  -0.00    -0.00   0.00   0.00
   5   6     0.00   0.00   0.00    -0.00  -0.00  -0.00     0.00   0.00  -0.00
   6   6    -0.00   0.00   0.00     0.00  -0.00   0.00     0.00  -0.00   0.00
   7   6    -0.00   0.00   0.00     0.00  -0.00  -0.00    -0.00  -0.00  -0.00
   8   6     0.00  -0.00   0.00    -0.00   0.00  -0.00    -0.00   0.00  -0.00
   9   6    -0.00   0.00  -0.00     0.00   0.00   0.00    -0.00  -0.00  -0.00
  10   8     0.00   0.00   0.00    -0.00   0.00  -0.00     0.00   0.00   0.00
  11   8     0.00  -0.00   0.00     0.00   0.00   0.00     0.00   0.00   0.00
  12  17     0.00  -0.00  -0.00    -0.00   0.00  -0.00     0.00   0.00  -0.00
  13  17    -0.00   0.00   0.00     0.00  -0.00   0.00     0.00  -0.00   0.00
  14   1     0.07   0.05   0.07     0.39   0.29   0.83    -0.01  -0.03   0.01
  15   1    -0.61  -0.15   0.72     0.06   0.00  -0.12    -0.04  -0.04   0.03
  16   1     0.01  -0.03  -0.03    -0.01  -0.02  -0.03     0.25   0.93  -0.05
  17   1     0.00  -0.00  -0.00     0.00   0.00  -0.00    -0.00  -0.00  -0.00
  18   1     0.00  -0.00  -0.00    -0.00   0.00   0.00    -0.00   0.00   0.00
  19   1     0.00   0.00   0.00    -0.00  -0.00  -0.00    -0.00   0.00  -0.00
                     49                     50                     51
                        a                      a                      a 
 Frequencies --  3112.1106              3136.7696              3314.2212
 Red. masses --     1.8312                 1.8761                 1.8505
 Frc consts  --     0.0000                 0.0000                 0.0000
 IR Inten    --     2.6810                 2.5298               261.7089
 Raman Activ --     0.0000                 0.0000                 0.0000
 Depolar     --     0.0000                 0.0000                 0.0000
 Atom AN      X      Y      Z        X      Y      Z        X      Y      Z
   1   6     0.00   0.00  -0.00     0.00   0.00   0.00    -0.00  -0.00  -0.00
   2   8     0.00   0.00   0.00    -0.00   0.00   0.00     0.00  -0.00   0.00
   3   6    -0.00  -0.00   0.00     0.00  -0.00  -0.00    -0.00   0.00  -0.00
   4   6     0.01  -0.00   0.00    -0.00   0.00  -0.00    -0.00   0.00  -0.00
   5   6     0.20   0.19   0.01    -0.05  -0.04  -0.00     0.00   0.00   0.00
   6   6     0.01  -0.05   0.00     0.07  -0.27   0.00     0.00   0.00  -0.00
   7   6     0.00  -0.00  -0.00     0.01  -0.00   0.00     0.00  -0.00   0.00
   8   6    -0.00   0.00  -0.00    -0.00   0.00  -0.00     0.00   0.00   0.00
   9   6     0.00   0.00   0.00     0.00  -0.00   0.00    -0.00  -0.01   0.01
  10   8    -0.00   0.00  -0.00    -0.00   0.00  -0.00    -0.00  -0.00  -0.00
  11   8     0.00   0.00   0.00    -0.00  -0.00  -0.00    -0.17  -0.17  -0.01
  12  17    -0.00   0.00  -0.00    -0.00   0.00  -0.00    -0.00   0.00  -0.00
  13  17    -0.00   0.00  -0.00     0.00  -0.00   0.00     0.00   0.00   0.00
  14   1     0.00   0.00  -0.00    -0.00  -0.00  -0.00     0.00   0.00   0.00
  15   1     0.00   0.00   0.00    -0.00  -0.00   0.00     0.00   0.00  -0.00
  16   1    -0.00  -0.00   0.00    -0.00  -0.00   0.00    -0.00   0.00   0.00
  17   1    -0.68  -0.65  -0.02     0.14   0.13   0.00    -0.00  -0.00   0.00
  18   1    -0.05   0.19  -0.00    -0.23   0.91  -0.02    -0.00  -0.00  -0.00
  19   1    -0.00  -0.00   0.00     0.00   0.00   0.00     0.68   0.70   0.02
