
                                 *****************
                                 * O   R   C   A *
                                 *****************

                                            #,                                       
                                            ###                                      
                                            ####                                     
                                            #####                                    
                                            ######                                   
                                           ########,                                 
                                     ,,################,,,,,                         
                               ,,#################################,,                 
                          ,,##########################################,,             
                       ,#########################################, ''#####,          
                    ,#############################################,,   '####,        
                  ,##################################################,,,,####,       
                ,###########''''           ''''###############################       
              ,#####''   ,,,,##########,,,,          '''####'''          '####       
            ,##' ,,,,###########################,,,                        '##       
           ' ,,###''''                  '''############,,,                           
         ,,##''                                '''############,,,,        ,,,,,,###''
      ,#''                                            '''#######################'''  
     '                                                          ''''####''''         
             ,#######,   #######,   ,#######,      ##                                
            ,#'     '#,  ##    ##  ,#'     '#,    #''#        ,####,   ,####,        
            ##       ##  ##   ,#'  ##            #'  '#       #'       #'  '#        
            ##       ##  #######   ##           ,######,      #####,   #    #        
            '#,     ,#'  ##    ##  '#,     ,#' ,#      #,     #,   #   #,  ,#        
             '#######'   ##     ##  '#######'  #'      '#     '####' # '####'        



                #########################################################
                #                        -***-                          #
                #          Department of theory and spectroscopy        #
                #                                                       #
                #                      Frank Neese                      #
                #                                                       #
                #     Directorship, Architecture, Infrastructure        #
                #                    SHARK, DRIVERS                     #
                #        Core code/Algorithms in most modules           #
                #                                                       #
                #        Max Planck Institute fuer Kohlenforschung      #
                #                Kaiser Wilhelm Platz 1                 #
                #                 D-45470 Muelheim/Ruhr                 #
                #                      Germany                          #
                #                                                       #
                #                  All rights reserved                  #
                #                        -***-                          #
                #########################################################


                         Program Version 6.0.0  -   RELEASE  -


 With contributions from (in alphabetic order):
   Daniel Aravena         : Magnetic Suceptibility
   Michael Atanasov       : Ab Initio Ligand Field Theory (pilot matlab implementation)
   Alexander A. Auer      : GIAO ZORA, VPT2 properties, NMR spectrum
   Ute Becker             : All parallelization in ORCA, NUMFREQ, NUMCALC
   Giovanni Bistoni       : ED, misc. LED, open-shell LED, HFLD
   Martin Brehm           : Molecular dynamics
   Dmytro Bykov           : pre 5.0 version of the SCF Hessian
   Marcos Casanova-Páez   : Triplet and SCS-CIS(D). UHF-(DLPNO)-IP/EA/STEOM-CCSD. UHF-CVS-IP/STEOM-CCSD
   Vijay G. Chilkuri      : MRCI spin determinant printing, contributions to CSF-ICE
   Pauline Colinet        : FMM embedding
   Dipayan Datta          : RHF DLPNO-CCSD density
   Achintya Kumar Dutta   : EOM-CC, STEOM-CC
   Nicolas Foglia         : Exact transition moments, OPA infrastructure, MCD improvements
   Dmitry Ganyushin       : Spin-Orbit,Spin-Spin,Magnetic field MRCI
   Miquel Garcia          : C-PCM and meta-GGA Hessian, CCSD/C-PCM, Gaussian charge scheme
   Tiago L. C. Gouveia    : GS-ROHF, GS-ROCIS
   Yang Guo               : DLPNO-NEVPT2, F12-NEVPT2, CIM, IAO-localization
   Andreas Hansen         : Spin unrestricted coupled pair/coupled cluster methods
   Ingolf Harden          : AUTO-CI MPn and infrastructure 
   Benjamin Helmich-Paris : MC-RPA, TRAH-(SCF,CASSCF), AVAS, COSX integrals, SCF dyn. polar.
   Lee Huntington         : MR-EOM, pCC
   Robert Izsak           : Overlap fitted RIJCOSX, COSX-SCS-MP3, EOM
   Riya Kayal             : Wick's Theorem for AUTO-CI, AUTO-CI UHF-CCSDT
   Emily Kempfer          : AUTO-CI, RHF CISDT and CCSDT
   Christian Kollmar      : KDIIS, OOCD, Brueckner-CCSD(T), CCSD density, CASPT2, CASPT2-K, improved NEVPT2
   Axel Koslowski         : Symmetry handling
   Simone Kossmann        : Meta GGA functionals, TD-DFT gradient, OOMP2, (MP2 Hessian; deprecated post 5.0)
   Lucas Lang             : DCDCAS
   Marvin Lechner         : AUTO-CI (C++ implementation), FIC-MRCC
   Spencer Leger          : CASSCF response
   Dagmar Lenk            : GEPOL surface, SMD, ORCA-2-JSON
   Dimitrios Liakos       : Extrapolation schemes; Compound Job, initial MDCI parallelization
   Dimitrios Manganas     : Further ROCIS development; embedding schemes. LFT, Crystal Embedding
   Dimitrios Pantazis     : SARC Basis sets
   Anastasios Papadopoulos: AUTO-CI, single reference methods and gradients
   Taras Petrenko         : pre 6.0 DFT Hessian and TD-DFT gradient, (ASA, deprecated), ECA, 1-Electron XAS/XES, NRVS
   Peter Pinski           : DLPNO-MP2, DLPNO-MP2 Gradient
   Christoph Reimann      : Effective Core Potentials
   Marius Retegan         : Local ZFS, SOC
   Christoph Riplinger    : Optimizer, TS searches, QM/MM, DLPNO-CCSD(T), (RO)-DLPNO pert. Triples
   Michael Roemelt        : Original ROCIS implementation
   Masaaki Saitow         : Open-shell DLPNO-CCSD energy and density
   Barbara Sandhoefer     : DKH picture change effects
   Kantharuban Sivalingam : CASSCF convergence/infrastructure, NEVPT2 and variants, FIC-MRCI
   Bernardo de Souza      : ESD, SOC TD-DFT
   Georgi Stoychev        : AutoAux, RI-MP2 NMR, DLPNO-MP2 response, X2C
   Van Anh Tran           : RI-MP2 g-tensors
   Willem Van den Heuvel  : Paramagnetic NMR
   Zikuan Wang            : NOTCH, Electric field optimization 
   Frank Wennmohs         : Technical directorship and infrastructure
   Hang Xu                : AUTO-CI-Response properties 


 We gratefully acknowledge several colleagues who have allowed us to
 interface, adapt or use parts of their codes:
   Stefan Grimme, W. Hujo, H. Kruse, P. Pracht,  : VdW corrections, initial TS optimization,
                  C. Bannwarth, S. Ehlert,         DFT functionals, gCP, sTDA/sTD-DF
                  L. Wittmann, M. Mueller
   Ed Valeev, F. Pavosevic, A. Kumar             : LibInt (2-el integral package), F12 methods
   Garnet Chan, S. Sharma, J. Yang, R. Olivares  : DMRG
   Ulf Ekstrom                                   : XCFun DFT Library
   Mihaly Kallay                                 : mrcc  (arbitrary order and MRCC methods)
   Frank Weinhold                                : gennbo (NPA and NBO analysis)
   Simon Mueller                                 : openCOSMO-RS
   Christopher J. Cramer and Donald G. Truhlar   : smd solvation model
   Lars Goerigk                                  : TD-DFT with DH, B97 family of functionals
   V. Asgeirsson, H. Jonsson                     : NEB implementation
   FAccTs GmbH                                   : IRC, NEB, NEB-TS, DLPNO-Multilevel, CI-OPT
                                                   MM, QMMM, 2- and 3-layer-ONIOM, Crystal-QMMM,
                                                   LR-CPCM, SF, NACMEs, symmetry and pop. for TD-DFT,
                                                   nearIR, NL-DFT gradient (VV10), updates on ESD,
                                                   ML-optimized integration grids, MBIS, APM,
                                                   GOAT, DOCKER, SOLVATOR, interface openCOSMO-RS
   S Lehtola, MJT Oliveira, MAL Marques          : LibXC Library
   Liviu Ungur et al                             : ANISO software


 Your calculation uses the libint2 library for the computation of 2-el integrals
 For citations please refer to: http://libint.valeyev.net

 Your ORCA version has been built with support for libXC version: 6.2.2
 For citations please refer to: https://libxc.gitlab.io

 This ORCA versions uses:
   CBLAS   interface :  Fast vector & matrix operations
   LAPACKE interface :  Fast linear algebra routines
   SCALAPACK package :  Parallel linear algebra routines
   Shared memory     :  Shared parallel matrices
   BLAS/LAPACK       :  OpenBLAS 0.3.27  USE64BITINT DYNAMIC_ARCH NO_AFFINITY SkylakeX SINGLE_THREADED
        Core in use  :  SkylakeX
   Copyright (c) 2011-2014, The OpenBLAS Project


Your calculation utilizes the geometrical counterpoise correction gCP
Please cite in your paper:
H.Kruse, S. Grimme J.Chem.Phys., 136, (2012), 154101 
   

Your calculation utilizes the atom-pairwise dispersion correction
based on EEQ partial charges (D4)


================================================================================

----- Orbital basis set information -----
Your calculation utilizes the basis: def2-mTZVPP
   Stefan Grimme, Andreas Hansen, Sebastian Ehlert, and Jan-Michael Mewes 
   J. Chem. Phys. 154, 064103 (2021). DOI: 10.1063/5.0040021

----- AuxJ basis set information -----
Your calculation utilizes the auxiliary basis: def2/J
   F. Weigend, Phys. Chem. Chem. Phys. 8, 1057 (2006).

================================================================================
                                        WARNINGS
                       Please study these warnings very carefully!
================================================================================

Using LibXC functional ID 497 : Re-regularized SCAN exchange by Furness et al
[ 1]  J. W. Furness, A. D. Kaplan, J. Ning, J. P. Perdew, and J. Sun.,  J. Phys. Chem. Lett. 11, 8208-8215 (2020)
[ 2]  J. W. Furness, A. D. Kaplan, J. Ning, J. P. Perdew, and J. Sun.,  J. Phys. Chem. Lett. 11, 9248-9248 (2020)
Using LibXC functional ID 498 : Re-regularized SCAN correlation by Furness et al
[ 1]  J. W. Furness, A. D. Kaplan, J. Ning, J. P. Perdew, and J. Sun.,  J. Phys. Chem. Lett. 11, 8208-8215 (2020)
[ 2]  J. W. Furness, A. D. Kaplan, J. Ning, J. P. Perdew, and J. Sun.,  J. Phys. Chem. Lett. 11, 9248-9248 (2020)
Using LibXC functional ID 497 : Re-regularized SCAN exchange by Furness et al
[ 1]  J. W. Furness, A. D. Kaplan, J. Ning, J. P. Perdew, and J. Sun.,  J. Phys. Chem. Lett. 11, 8208-8215 (2020)
[ 2]  J. W. Furness, A. D. Kaplan, J. Ning, J. P. Perdew, and J. Sun.,  J. Phys. Chem. Lett. 11, 9248-9248 (2020)
Using LibXC functional ID 498 : Re-regularized SCAN correlation by Furness et al
[ 1]  J. W. Furness, A. D. Kaplan, J. Ning, J. P. Perdew, and J. Sun.,  J. Phys. Chem. Lett. 11, 8208-8215 (2020)
[ 2]  J. W. Furness, A. D. Kaplan, J. Ning, J. P. Perdew, and J. Sun.,  J. Phys. Chem. Lett. 11, 9248-9248 (2020)

================================================================================
                                       INPUT FILE
================================================================================
NAME = sp_gas.inp
|  1> ! r2scan-3c def2/J RI DEFGRID2 scfconv6 printgap
|  2> %output
|  3>     printlevel normal
|  4> end
|  5> * xyz 0 1
|  6> C -2.3221972422 0.9080629713 0.7516625004
|  7> C -1.7310773767 -0.4201327945 0.2859914974
|  8> C -2.7545717192 -1.2279324976 -0.5072701805
|  9> C -0.4904399435 -0.1769894662 -0.5730144645
| 10> O 0.5355614096 0.4112065709 0.2374718434
| 11> C 1.8039244944 0.1588704751 -0.0578723667
| 12> O 2.1489893567 -0.5453253045 -0.9856381383
| 13> C 2.7390499882 0.8571022648 0.8831873568
| 14> H -2.6769863128 1.4816119806 -0.1014018069
| 15> H -1.5686952526 1.4913393487 1.2737019842
| 16> H -3.157777189 0.7338362879 1.4238241733
| 17> H -1.4192886332 -0.9959026863 1.1634353375
| 18> H -2.3408441804 -2.1871160839 -0.807916021
| 19> H -3.0529430008 -0.6855862801 -1.4010641145
| 20> H -3.6376293407 -1.4067852757 0.099313162
| 21> H -0.1057418869 -1.1100955892 -0.9980382855
| 22> H -0.7138681596 0.5138261783 -1.3924101654
| 23> H 2.9540538072 1.8451565544 0.4816432935
| 24> H 3.6681971693 0.3006866032 0.9525098405
| 25> H 2.2716325991 0.9684872807 1.8556536948
| 26> *
| 27> 
| 28>                          ****END OF INPUT****
================================================================================

                       ****************************
                       * Single Point Calculation *
                       ****************************

---------------------------------
CARTESIAN COORDINATES (ANGSTROEM)
---------------------------------
  C     -2.322197    0.908063    0.751663
  C     -1.731077   -0.420133    0.285991
  C     -2.754572   -1.227932   -0.507270
  C     -0.490440   -0.176989   -0.573014
  O      0.535561    0.411207    0.237472
  C      1.803924    0.158870   -0.057872
  O      2.148989   -0.545325   -0.985638
  C      2.739050    0.857102    0.883187
  H     -2.676986    1.481612   -0.101402
  H     -1.568695    1.491339    1.273702
  H     -3.157777    0.733836    1.423824
  H     -1.419289   -0.995903    1.163435
  H     -2.340844   -2.187116   -0.807916
  H     -3.052943   -0.685586   -1.401064
  H     -3.637629   -1.406785    0.099313
  H     -0.105742   -1.110096   -0.998038
  H     -0.713868    0.513826   -1.392410
  H      2.954054    1.845157    0.481643
  H      3.668197    0.300687    0.952510
  H      2.271633    0.968487    1.855654

----------------------------
CARTESIAN COORDINATES (A.U.)
----------------------------
  NO LB      ZA    FRAG     MASS         X           Y           Z
   0 C     6.0000    0    12.011   -4.388317    1.715990    1.420436
   1 C     6.0000    0    12.011   -3.271262   -0.793936    0.540446
   2 C     6.0000    0    12.011   -5.205386   -2.320456   -0.958602
   3 C     6.0000    0    12.011   -0.926797   -0.334462   -1.082840
   4 O     8.0000    0    15.999    1.012064    0.777068    0.448757
   5 C     6.0000    0    12.011    3.408923    0.300222   -0.109363
   6 O     8.0000    0    15.999    4.061001   -1.030515   -1.862586
   7 C     6.0000    0    12.011    5.176054    1.619689    1.668982
   8 H     1.0000    0     1.008   -5.058771    2.799841   -0.191622
   9 H     1.0000    0     1.008   -2.964404    2.818223    2.406948
  10 H     1.0000    0     1.008   -5.967334    1.386750    2.690638
  11 H     1.0000    0     1.008   -2.682067   -1.881983    2.198574
  12 H     1.0000    0     1.008   -4.423554   -4.133050   -1.526740
  13 H     1.0000    0     1.008   -5.769226   -1.295570   -2.647627
  14 H     1.0000    0     1.008   -6.874123   -2.658439    0.187675
  15 H     1.0000    0     1.008   -0.199823   -2.097777   -1.886019
  16 H     1.0000    0     1.008   -1.349015    0.970991   -2.631274
  17 H     1.0000    0     1.008    5.582353    3.486841    0.910174
  18 H     1.0000    0     1.008    6.931888    0.568215    1.799983
  19 H     1.0000    0     1.008    4.292763    1.830176    3.506677

--------------------------------
INTERNAL COORDINATES (ANGSTROEM)
--------------------------------
 C      0   0   0     0.000000000000     0.00000000     0.00000000
 C      1   0   0     1.526556966088     0.00000000     0.00000000
 C      2   1   0     1.526219223795   111.06217651     0.00000000
 C      2   1   3     1.528460389194   110.32458694   121.80838117
 O      4   2   1     1.433715944641   109.17308897    65.56695591
 C      5   4   2     1.326516725325   118.70805534   149.42118971
 O      6   5   4     1.214788369286   123.49829731     0.19270847
 C      6   5   4     1.499193357942   111.59571987   179.69341935
 H      1   2   3     1.087452280827   110.23847038   302.59595066
 H      1   2   3     1.086508998311   110.18807838   182.66305496
 H      1   2   3     1.086439183396   110.30479823    62.52474327
 H      2   1   3     1.094820022381   108.86647288   239.70962946
 H      3   2   1     1.087010372535   110.82745422   181.93010767
 H      3   2   1     1.087213151951   110.32236632    61.74091274
 H      3   2   1     1.086150279898   110.00494402   302.01353201
 H      4   2   1     1.095136922923   111.57409867   185.50330814
 H      4   2   1     1.094785703729   110.81560885   306.64443819
 H      8   6   5     1.087986928301   108.33387721   271.12964141
 H      8   6   5     1.085227386019   109.59366442   152.71855809
 H      8   6   5     1.084701072159   109.98659163    29.96926642

---------------------------
INTERNAL COORDINATES (A.U.)
---------------------------
 C      0   0   0     0.000000000000     0.00000000     0.00000000
 C      1   0   0     2.884774593737     0.00000000     0.00000000
 C      2   1   0     2.884136353299   111.06217651     0.00000000
 C      2   1   3     2.888371542122   110.32458694   121.80838117
 O      4   2   1     2.709330489207   109.17308897    65.56695591
 C      5   4   2     2.506753322930   118.70805534   149.42118971
 O      6   5   4     2.295617328624   123.49829731     0.19270847
 C      6   5   4     2.833064868303   111.59571987   179.69341935
 H      1   2   3     2.054986994471   110.23847038   302.59595066
 H      1   2   3     2.053204448848   110.18807838   182.66305496
 H      1   2   3     2.053072517780   110.30479823    62.52474327
 H      2   1   3     2.068910008233   108.86647288   239.70962946
 H      3   2   1     2.054151908823   110.82745422   181.93010767
 H      3   2   1     2.054535106385   110.32236632    61.74091274
 H      3   2   1     2.052526569289   110.00494402   302.01353201
 H      4   2   1     2.069508863470   111.57409867   185.50330814
 H      4   2   1     2.068845155380   110.81560885   306.64443819
 H      8   6   5     2.055997331774   108.33387721   271.12964141
 H      8   6   5     2.050782552608   109.59366442   152.71855809
 H      8   6   5     2.049787963552   109.98659163    29.96926642

---------------------
BASIS SET INFORMATION
---------------------
There are 3 groups of distinct atoms

 Group   1 Type C   : 11s6p1d contracted to 5s3p1d pattern {62111/411/1}
 Group   2 Type O   : 11s6p2d contracted to 5s3p2d pattern {62111/411/11}
 Group   3 Type H   : 4s1p contracted to 2s1p pattern {31/1}

Atom   0C    basis set group =>   1
Atom   1C    basis set group =>   1
Atom   2C    basis set group =>   1
Atom   3C    basis set group =>   1
Atom   4O    basis set group =>   2
Atom   5C    basis set group =>   1
Atom   6O    basis set group =>   2
Atom   7C    basis set group =>   1
Atom   8H    basis set group =>   3
Atom   9H    basis set group =>   3
Atom  10H    basis set group =>   3
Atom  11H    basis set group =>   3
Atom  12H    basis set group =>   3
Atom  13H    basis set group =>   3
Atom  14H    basis set group =>   3
Atom  15H    basis set group =>   3
Atom  16H    basis set group =>   3
Atom  17H    basis set group =>   3
Atom  18H    basis set group =>   3
Atom  19H    basis set group =>   3
---------------------------------
AUXILIARY/J BASIS SET INFORMATION
---------------------------------
There are 3 groups of distinct atoms

 Group   1 Type C   : 12s5p4d2f1g contracted to 6s4p3d1f1g pattern {711111/2111/211/2/1}
 Group   2 Type O   : 12s5p4d2f1g contracted to 6s4p3d1f1g pattern {711111/2111/211/2/1}
 Group   3 Type H   : 5s2p1d contracted to 3s1p1d pattern {311/2/1}

Atom   0C    basis set group =>   1
Atom   1C    basis set group =>   1
Atom   2C    basis set group =>   1
Atom   3C    basis set group =>   1
Atom   4O    basis set group =>   2
Atom   5C    basis set group =>   1
Atom   6O    basis set group =>   2
Atom   7C    basis set group =>   1
Atom   8H    basis set group =>   3
Atom   9H    basis set group =>   3
Atom  10H    basis set group =>   3
Atom  11H    basis set group =>   3
Atom  12H    basis set group =>   3
Atom  13H    basis set group =>   3
Atom  14H    basis set group =>   3
Atom  15H    basis set group =>   3
Atom  16H    basis set group =>   3
Atom  17H    basis set group =>   3
Atom  18H    basis set group =>   3
Atom  19H    basis set group =>   3

Checking for AutoStart:
The File: sp_gas.gbw exists
Trying to determine its content:
     ... Fine, the file contains calculation information
     ... Fine, the calculation information was read
     ... Fine, the file contains a basis set
     ... Fine, the basis set was read
     ... Fine, the file contains a geometry
     ... Fine, the geometry was read
     ... Fine, the file contains a set of orbitals
     ... Fine, the orbitals can be read
     => possible old guess file was deleted
     => GBW file was renamed to GES file
     => GES file is set as startup file
     => Guess is set to MORead
     ... now leaving AutoStart

------------------------------------------------------------------------------
                             ORCA STARTUP CALCULATIONS
                           -- RI-GTO INTEGRALS CHOSEN --
------------------------------------------------------------------------------
------------------------------------------------------------------------------
                   ___                                                        
                  /   \      - P O W E R E D   B Y -                         
                 /     \                                                     
                 |  |  |   _    _      __       _____    __    __             
                 |  |  |  | |  | |    /  \     |  _  \  |  |  /  |          
                  \  \/   | |  | |   /    \    | | | |  |  | /  /          
                 / \  \   | |__| |  /  /\  \   | |_| |  |  |/  /          
                |  |  |   |  __  | /  /__\  \  |    /   |      \           
                |  |  |   | |  | | |   __   |  |    \   |  |\   \          
                \     /   | |  | | |  |  |  |  | |\  \  |  | \   \       
                 \___/    |_|  |_| |__|  |__|  |_| \__\ |__|  \__/        
                                                                              
                      - O R C A' S   B I G   F R I E N D -                    
                                      &                                       
                       - I N T E G R A L  F E E D E R -                       
                                                                              
 v1 FN, 2020, v2 2021, v3 2022-2024                                           
------------------------------------------------------------------------------


----------------------
SHARK INTEGRAL PACKAGE
----------------------

Number of atoms                             ...     20
Number of basis functions                   ...    222
Number of shells                            ...    110
Maximum angular momentum                    ...      2
Integral batch strategy                     ... SHARK/LIBINT Hybrid
RI-J (if used) integral strategy            ... SPLIT-RIJ (Revised 2003 algorithm where possible)
Printlevel                                  ...      1
Contraction scheme used                     ... SEGMENTED contraction
Prescreening option                         ... SCHWARTZ
   Thresh                                   ... 1.000e-10
   Tcut                                     ... 1.000e-11
   Tpresel                                  ... 1.000e-11 
Coulomb Range Separation                    ... NOT USED
Exchange Range Separation                   ... NOT USED
Multipole approximations                    ... NOT USED
Finite Nucleus Model                        ... NOT USED
CABS basis                                  ... NOT available
Auxiliary Coulomb fitting basis             ... AVAILABLE
   # of basis functions in Aux-J            ...    524
   # of shells in Aux-J                     ...    180
   Maximum angular momentum in Aux-J        ...      4
Auxiliary J/K fitting basis                 ... NOT available
Auxiliary Correlation fitting basis         ... NOT available
Auxiliary 'external' fitting basis          ... NOT available

Checking pre-screening integrals            ... done (  0.0 sec) Dimension = 110
Check shell pair data                       ... done (  0.0 sec)
Shell pair information
Shell pair cut-off parameter TPreSel        ...   1.0e-11
Total number of shell pairs                 ...      6105
Shell pairs after pre-screening             ...      5302
Total number of primitive shell pairs       ...     21533
Primitive shell pairs kept                  ...     13221
          la=0 lb=0:   1782 shell pairs
          la=1 lb=0:   2006 shell pairs
          la=1 lb=1:    586 shell pairs
          la=2 lb=0:    562 shell pairs
          la=2 lb=1:    316 shell pairs
          la=2 lb=2:     50 shell pairs

Calculating one electron integrals          ... done (  0.0 sec)
Calculating RI/J V-Matrix + Cholesky decomp.... done (  0.1 sec)
Calculating Nuclear repulsion               ... done (  0.0 sec) ENN=    391.356504421447 Eh

Diagonalization of the overlap matrix:
Smallest eigenvalue                        ... 2.303e-04
Time for diagonalization                   ...    0.005 sec
Threshold for overlap eigenvalues          ... 1.000e-07
Number of eigenvalues below threshold      ... 0
Time for construction of square roots      ...    0.017 sec
Total time needed                          ...    0.031 sec

-------------------
DFT GRID GENERATION
-------------------

General Integration Accuracy     IntAcc      ... 4.388
Radial Grid Type                 RadialGrid  ... OptM3 with GC (2021)
Angular Grid (max. ang.)         AngularGrid ... 4 (Lebedev-302)
Angular grid pruning method      GridPruning ... 4 (adaptive)
Weight generation scheme         WeightScheme... mBecke (2022)
Basis function cutoff            BFCut       ... 1.0000e-10
Integration weight cutoff        WCut        ... 1.0000e-14
Partially contracted basis set               ... off
Rotationally invariant grid construction     ... off
Angular grids for H and He will be reduced by one unit
Diffuse basis detected: some atoms will have their outermost
                        angular grid increased by 1.

Total number of grid points                  ...    87393
Total number of batches                      ...     1379
Average number of points per batch           ...       63
Average number of grid points per atom       ...     4370
Initializing property integral containers    ... done (  0.0 sec)

SHARK setup successfully completed in   1.4 seconds

Maximum memory used throughout the entire STARTUP-calculation: 39.5 MB
-------------------------------------------------------------------------------
                                 ORCA GUESS
                   Start orbitals & Density for SCF / CASSCF
-------------------------------------------------------------------------------

------------
SCF SETTINGS
------------
Hamiltonian:
 Density Functional     Method          .... DFT(GTOs)
  Functional kind                       .... Exchange
  Functional name                       .... Re-regularized SCAN exchange by Furness et al
  Functional family                     .... MGGA
  Functional refs                              
    [ 0] J. W. Furness, A. D. Kaplan, J. Ning, J. P. Perdew, and J. Sun.,  J. Phys. Chem. Lett. 11, 8208-8215 (2020), doi: 10.1021/acs.jpclett.0c02405
    [ 1] J. W. Furness, A. D. Kaplan, J. Ning, J. P. Perdew, and J. Sun.,  J. Phys. Chem. Lett. 11, 9248-9248 (2020), doi: 10.1021/acs.jpclett.0c03077
  Functional external parameters        .... 6
    Parameter  0 _c1        =  6.670000e-01 : c1 parameter        
    Parameter  1 _c2        =  8.000000e-01 : c2 parameter        
    Parameter  2 _d         =  1.240000e+00 : d parameter         
    Parameter  3 _k1        =  6.500000e-02 : k1 parameter        
    Parameter  4 _eta       =  1.000000e-03 : eta parameter       
    Parameter  5 _dp2       =  3.610000e-01 : dp2 parameter       
  Functional kind                       .... Correlation
  Functional name                       .... Re-regularized SCAN correlation by Furness et al
  Functional family                     .... MGGA
  Functional refs                              
    [ 0] J. W. Furness, A. D. Kaplan, J. Ning, J. P. Perdew, and J. Sun.,  J. Phys. Chem. Lett. 11, 8208-8215 (2020), doi: 10.1021/acs.jpclett.0c02405
    [ 1] J. W. Furness, A. D. Kaplan, J. Ning, J. P. Perdew, and J. Sun.,  J. Phys. Chem. Lett. 11, 9248-9248 (2020), doi: 10.1021/acs.jpclett.0c03077
  Functional external parameters        .... 1
    Parameter  0 _eta       =  1.000000e-03 : Regularization parameter
 Gradients option       PostSCFGGA      .... off
 RI-approximation to the Coulomb term is turned on
   Number of AuxJ basis functions       .... 524


General Settings:
 Integral files         IntName         .... sp_gas
 Hartree-Fock type      HFTyp           .... RHF
 Total Charge           Charge          ....    0
 Multiplicity           Mult            ....    1
 Number of Electrons    NEL             ....   64
 Basis Dimension        Dim             ....  222
 Nuclear Repulsion      ENuc            ....    391.3565044214 Eh

Convergence Acceleration:
 AO-DIIS                CNVDIIS         .... on
   Start iteration      DIISMaxIt       ....    12
   Startup error        DIISStart       ....  0.200000
   # of expansion vecs  DIISMaxEq       ....     5
   Bias factor          DIISBfac        ....   1.050
   Max. coefficient     DIISMaxC        ....  10.000
 MO-DIIS                CNVKDIIS        .... off
 Trust-Rad. Augm. Hess. CNVTRAH         .... auto
   Auto Start mean grad. ratio tolernc. ....  1.125000
   Auto Start start iteration           ....     1
   Auto Start num. interpolation iter.  ....    10
   Max. Number of Micro iterations      ....    24
   Max. Number of Macro iterations      .... Maxiter - #DIIS iter
   Number of Davidson start vectors     ....     2
   Converg. threshold    (grad. norm)   ....   3.330e-04
   Grad. Scal. Fac. for Micro threshold ....   0.100
   Minimum threshold for Micro iter.    ....   1.000e-02
   NR start threshold (gradient norm)   ....   1.000e-04
   Initial trust radius                 ....   0.400
   Minimum AH scaling param. (alpha)    ....   1.000
   Maximum AH scaling param. (alpha)    .... 1000.000
   Quad. conv. algorithm                .... NR
   White noise on init. David. guess    .... on
   Maximum white noise                  ....   0.010
   Pseudo random numbers                .... off
   Inactive MOs                         .... canonical
   Orbital update algorithm             .... Taylor
   Preconditioner                       .... Diag
   Full preconditioner red. dimension   ....   250
   COSX micro iterations for RIJONX calc.... off
 SOSCF                  CNVSOSCF        .... on
   Start iteration      SOSCFMaxIt      ....   150
   Startup grad/error   SOSCFStart      ....  0.003300
   Hessian update       SOSCFHessUp     .... L-BFGS
 Level Shifting         CNVShift        .... on
   Level shift para.    LevelShift      ....    0.2500
   Turn off err/grad.   ShiftErr        ....    0.0010
 Zerner damping         CNVZerner       .... off
 Static damping         CNVDamp         .... on
   Fraction old density DampFac         ....    0.7000
   Max. Damping (<1)    DampMax         ....    0.9800
   Min. Damping (>=0)   DampMin         ....    0.0000
   Turn off err/grad.   DampErr         ....    0.1000

SCF Procedure:
 Maximum # iterations   MaxIter         ....   125
 SCF integral mode      SCFMode         .... Direct
   Integral package                     .... SHARK and LIBINT hybrid scheme
 Reset frequency        DirectResetFreq ....    20
 Integral Threshold     Thresh          ....  1.000e-10 Eh
 Primitive CutOff       TCut            ....  1.000e-11 Eh

Convergence Tolerance:
 Convergence Check Mode ConvCheckMode   .... Total+1el-Energy
 Convergence forced     ConvForced      .... 0
 Energy Change          TolE            ....  1.000e-06 Eh
 1-El. energy change                    ....  1.000e-03 Eh
 Orbital Gradient       TolG            ....  3.330e-04
 Orbital Rotation angle TolX            ....  3.330e-04
 DIIS Error             TolErr          ....  1.000e-06

---------------------
INITIAL GUESS: MOREAD
---------------------
Guess MOs are being read from file: sp_gas.ges
Input Geometry matches current geometry (good)
Atom 0: N(Shells)= 9 and 6 - projection required
Input basis set needs projection
NBasis(read)= 136
NBasis(calc)= 222
Basis set overlap was calculated
Using GuessMode=FMatrix for the initial guess
C*T matrix was formed
Effective Fockian was calculated
Effective Fockian was diagonalized
Initial density was built
                      ------------------
                      INITIAL GUESS DONE (   0.1 sec)
                      ------------------
             **** ENERGY FILE WAS UPDATED (sp_gas.en.tmp) ****
Finished Guess after   1.2 sec
Maximum memory used throughout the entire GUESS-calculation: 15.1 MB

-------------------------------------------------------------------------------------------
                                      ORCA LEAN-SCF
                              memory conserving SCF solver
-------------------------------------------------------------------------------------------

----------------------------------------D-I-I-S--------------------------------------------
Iteration    Energy (Eh)           Delta-E    RMSDP     MaxDP     DIISErr   Damp  Time(sec)
-------------------------------------------------------------------------------------------
               ***  Starting incremental Fock matrix formation  ***
    1    -386.0473991493769859     0.00e+00  3.32e-03  1.13e-01  6.26e-01  0.700   4.3
    2    -386.1058837330452320    -5.85e-02  2.75e-03  8.29e-02  4.40e-01  0.700   3.2
    3    -386.1472316417739989    -4.13e-02  2.03e-03  5.86e-02  3.09e-01  0.700   3.5
    4    -386.1762612807189612    -2.90e-02  1.46e-03  4.14e-02  2.16e-01  0.700   2.7
                               ***Turning on AO-DIIS***
    5    -386.1966233900771499    -2.04e-02  1.06e-03  2.99e-02  1.51e-01  0.700   2.6
    6    -386.2108964268375644    -1.43e-02  7.54e-04  2.11e-02  1.06e-01  0.700   3.0
    7    -386.2209017537037994    -1.00e-02  5.32e-04  1.49e-02  7.41e-02  0.700   2.6
    8    -386.2279116166649260    -7.01e-03  1.25e-03  3.47e-02  5.19e-02  0.000   2.6
                              *** Initializing SOSCF ***
---------------------------------------S-O-S-C-F--------------------------------------
Iteration    Energy (Eh)           Delta-E    RMSDP     MaxDP     MaxGrad    Time(sec)
--------------------------------------------------------------------------------------
    9    -386.2442890597573637    -1.64e-02  8.39e-06  3.59e-04  8.24e-05     2.6
                  *** Gradient check signals convergence ***

               *****************************************************
               *                     SUCCESS                       *
               *           SCF CONVERGED AFTER   9 CYCLES          *
               *****************************************************

             **** ENERGY FILE WAS UPDATED (sp_gas.en.tmp) ****

----------------
TOTAL SCF ENERGY
----------------

Total Energy       :       -386.24428905975736 Eh          -10510.24144 eV

Components:
Nuclear Repulsion  :        391.35650442144691 Eh           10649.35189 eV
Electronic Energy  :       -777.60079348120428 Eh          -21159.59332 eV
One Electron Energy:      -1299.77430456518300 Eh          -35368.65693 eV
Two Electron Energy:        522.17351108397872 Eh           14209.06361 eV

Virial components:
Potential Energy   :       -770.89548260596098 Eh          -20977.13254 eV
Kinetic Energy     :        384.65119354620361 Eh           10466.89110 eV
Virial Ratio       :          2.00414166273310

DFT components:
N(Alpha)           :       31.999995475633 electrons
N(Beta)            :       31.999995475633 electrons
N(Total)           :       63.999990951265 electrons
E(X)               :      -52.080493118129 Eh       
E(C)               :       -2.038460237608 Eh       
E(XC)              :      -54.118953355736 Eh       

---------------
SCF CONVERGENCE
---------------

  Last Energy change         ...    1.6377e-02  Tolerance :   1.0000e-06
  Last MAX-Density change    ...    3.5941e-04  Tolerance :   1.0000e-05
  Last RMS-Density change    ...    8.3868e-06  Tolerance :   1.0000e-06
  Last DIIS Error            ...    8.2366e-05  Tolerance :   1.0000e-06
  Last Orbital Gradient      ...    8.2366e-05  Tolerance :   3.3300e-04
  Last Orbital Rotation      ...    8.2366e-05  Tolerance :   3.3300e-04


----------------
ORBITAL ENERGIES
----------------

  NO   OCC          E(Eh)            E(eV) 
   0   2.0000     -18.997334      -516.9437 
   1   2.0000     -18.927016      -515.0303 
   2   2.0000     -10.155509      -276.3455 
   3   2.0000     -10.085858      -274.4502 
   4   2.0000     -10.045303      -273.3466 
   5   2.0000     -10.038989      -273.1748 
   6   2.0000     -10.025995      -272.8212 
   7   2.0000     -10.020261      -272.6652 
   8   2.0000      -1.072409       -29.1817 
   9   2.0000      -0.974858       -26.5272 
  10   2.0000      -0.786002       -21.3882 
  11   2.0000      -0.727904       -19.8073 
  12   2.0000      -0.662254       -18.0208 
  13   2.0000      -0.658589       -17.9211 
  14   2.0000      -0.554287       -15.0829 
  15   2.0000      -0.531225       -14.4554 
  16   2.0000      -0.469331       -12.7712 
  17   2.0000      -0.452392       -12.3102 
  18   2.0000      -0.444806       -12.1038 
  19   2.0000      -0.423733       -11.5304 
  20   2.0000      -0.406164       -11.0523 
  21   2.0000      -0.392683       -10.6855 
  22   2.0000      -0.380893       -10.3646 
  23   2.0000      -0.370859       -10.0916 
  24   2.0000      -0.360194        -9.8014 
  25   2.0000      -0.341507        -9.2929 
  26   2.0000      -0.331159        -9.0113 
  27   2.0000      -0.316585        -8.6147 
  28   2.0000      -0.307440        -8.3659 
  29   2.0000      -0.298329        -8.1179 
  30   2.0000      -0.269829        -7.3424 
  31   2.0000      -0.235546        -6.4095 
  32   0.0000      -0.013127        -0.3572 
  33   0.0000       0.073225         1.9925 
  34   0.0000       0.078828         2.1450 
  35   0.0000       0.114716         3.1216 
  36   0.0000       0.124544         3.3890 
  37   0.0000       0.130197         3.5429 
  38   0.0000       0.134669         3.6645 
  39   0.0000       0.138746         3.7755 
  40   0.0000       0.143564         3.9066 
  41   0.0000       0.156234         4.2514 
  42   0.0000       0.161883         4.4051 
*Only the first 10 virtual orbitals were printed.

                    ********************************
                    * MULLIKEN POPULATION ANALYSIS *
                    ********************************

-----------------------
MULLIKEN ATOMIC CHARGES
-----------------------
   0 C :   -0.500186
   1 C :   -0.013089
   2 C :   -0.476218
   3 C :   -0.209227
   4 O :   -0.158010
   5 C :    0.411835
   6 O :   -0.430632
   7 C :   -0.523259
   8 H :    0.147966
   9 H :    0.162188
  10 H :    0.148126
  11 H :    0.149947
  12 H :    0.150683
  13 H :    0.145823
  14 H :    0.151659
  15 H :    0.176977
  16 H :    0.149607
  17 H :    0.173550
  18 H :    0.175266
  19 H :    0.166996
Sum of atomic charges:   -0.0000000

--------------------------------
MULLIKEN REDUCED ORBITAL CHARGES
--------------------------------
  0 C s       :     3.332696  s :     3.332696
      pz      :     1.081593  p :     3.140696
      px      :     1.084560
      py      :     0.974542
      dz2     :     0.002138  d :     0.026794
      dxz     :     0.007035
      dyz     :     0.006952
      dx2y2   :     0.004577
      dxy     :     0.006092

  1 C s       :     3.056776  s :     3.056776
      pz      :     1.006262  p :     2.910570
      px      :     0.938941
      py      :     0.965367
      dz2     :     0.005611  d :     0.045743
      dxz     :     0.010883
      dyz     :     0.010463
      dx2y2   :     0.009137
      dxy     :     0.009650

  2 C s       :     3.322831  s :     3.322831
      pz      :     1.042427  p :     3.126560
      px      :     1.034248
      py      :     1.049885
      dz2     :     0.003747  d :     0.026827
      dxz     :     0.006915
      dyz     :     0.005679
      dx2y2   :     0.005356
      dxy     :     0.005130

  3 C s       :     3.318138  s :     3.318138
      pz      :     0.931984  p :     2.837749
      px      :     0.848952
      py      :     1.056814
      dz2     :     0.007242  d :     0.053340
      dxz     :     0.014471
      dyz     :     0.011348
      dx2y2   :     0.009681
      dxy     :     0.010598

  4 O s       :     3.702074  s :     3.702074
      pz      :     1.644451  p :     4.424345
      px      :     1.092149
      py      :     1.687744
      dz2     :     0.006929  d :     0.031591
      dxz     :     0.014149
      dyz     :     0.008114
      dx2y2   :    -0.000323
      dxy     :     0.002722

  5 C s       :     3.118716  s :     3.118716
      pz      :     0.757861  p :     2.344112
      px      :     0.805990
      py      :     0.780261
      dz2     :     0.026014  d :     0.125337
      dxz     :     0.034179
      dyz     :     0.014231
      dx2y2   :     0.024496
      dxy     :     0.026416

  6 O s       :     3.841691  s :     3.841691
      pz      :     1.385845  p :     4.568942
      px      :     1.779132
      py      :     1.403965
      dz2     :     0.007015  d :     0.019999
      dxz     :     0.003252
      dyz     :     0.004747
      dx2y2   :     0.002882
      dxy     :     0.002103

  7 C s       :     3.341827  s :     3.341827
      pz      :     1.021075  p :     3.156824
      px      :     1.055234
      py      :     1.080515
      dz2     :     0.004772  d :     0.024608
      dxz     :     0.006330
      dyz     :     0.004299
      dx2y2   :     0.003953
      dxy     :     0.005254

  8 H s       :     0.833814  s :     0.833814
      pz      :     0.007931  p :     0.018221
      px      :     0.004500
      py      :     0.005790

  9 H s       :     0.819486  s :     0.819486
      pz      :     0.005271  p :     0.018327
      px      :     0.007298
      py      :     0.005757

 10 H s       :     0.833568  s :     0.833568
      pz      :     0.006513  p :     0.018306
      px      :     0.008052
      py      :     0.003740

 11 H s       :     0.832570  s :     0.832570
      pz      :     0.008315  p :     0.017483
      px      :     0.003779
      py      :     0.005390

 12 H s       :     0.831045  s :     0.831045
      pz      :     0.004309  p :     0.018273
      px      :     0.004548
      py      :     0.009415

 13 H s       :     0.835901  s :     0.835901
      pz      :     0.008672  p :     0.018276
      px      :     0.004287
      py      :     0.005316

 14 H s       :     0.829986  s :     0.829986
      pz      :     0.005797  p :     0.018355
      px      :     0.008687
      py      :     0.003871

 15 H s       :     0.804887  s :     0.804887
      pz      :     0.004545  p :     0.018135
      px      :     0.004302
      py      :     0.009288

 16 H s       :     0.833026  s :     0.833026
      pz      :     0.007961  p :     0.017367
      px      :     0.003165
      py      :     0.006240

 17 H s       :     0.807803  s :     0.807803
      pz      :     0.004652  p :     0.018647
      px      :     0.004096
      py      :     0.009899

 18 H s       :     0.806594  s :     0.806594
      pz      :     0.003345  p :     0.018140
      px      :     0.009281
      py      :     0.005513

 19 H s       :     0.814698  s :     0.814698
      pz      :     0.009799  p :     0.018306
      px      :     0.004758
      py      :     0.003749


------------------------
MULLIKEN OVERLAP CHARGES
------------------------
B(  0-C ,  1-C ) :   0.4432 B(  0-C ,  2-C ) :  -0.1919 B(  0-C ,  3-C ) :  -0.1731 
B(  0-C ,  8-H ) :   0.8600 B(  0-C ,  9-H ) :   0.8050 B(  0-C , 10-H ) :   0.8048 
B(  1-C ,  2-C ) :   0.4989 B(  1-C ,  3-C ) :   0.2952 B(  1-C ,  4-O ) :  -0.0579 
B(  1-C ,  8-H ) :  -0.0913 B(  1-C ,  9-H ) :  -0.0715 B(  1-C , 10-H ) :  -0.0797 
B(  1-C , 11-H ) :   0.8683 B(  1-C , 12-H ) :  -0.0742 B(  1-C , 13-H ) :  -0.0831 
B(  1-C , 14-H ) :  -0.0868 B(  1-C , 15-H ) :  -0.1096 B(  2-C ,  3-C ) :  -0.1753 
B(  2-C , 11-H ) :  -0.0673 B(  2-C , 12-H ) :   0.8109 B(  2-C , 13-H ) :   0.8416 
B(  2-C , 14-H ) :   0.8125 B(  3-C ,  4-O ) :   0.2416 B(  3-C ,  5-C ) :  -0.2796 
B(  3-C , 11-H ) :  -0.1025 B(  3-C , 15-H ) :   0.8554 B(  3-C , 16-H ) :   0.7335 
B(  4-O ,  5-C ) :   0.3373 B(  4-O ,  6-O ) :  -0.2245 B(  4-O ,  7-C ) :  -0.0713 
B(  4-O , 15-H ) :  -0.0605 B(  4-O , 16-H ) :  -0.0687 B(  5-C ,  6-O ) :   0.9929 
B(  5-C ,  7-C ) :   0.5330 B(  5-C , 18-H ) :  -0.0922 B(  5-C , 19-H ) :  -0.1023 
B(  6-O ,  7-C ) :  -0.1106 B(  7-C , 17-H ) :   0.7690 B(  7-C , 18-H ) :   0.8526 
B(  7-C , 19-H ) :   0.8353 


                     *******************************
                     * LOEWDIN POPULATION ANALYSIS *
                     *******************************

----------------------
LOEWDIN ATOMIC CHARGES
----------------------
   0 C :   -0.409481
   1 C :   -0.219703
   2 C :   -0.409764
   3 C :    0.045482
   4 O :   -0.603117
   5 C :    0.354978
   6 O :   -0.436058
   7 C :   -0.335861
   8 H :    0.154271
   9 H :    0.163490
  10 H :    0.153686
  11 H :    0.164193
  12 H :    0.156093
  13 H :    0.155629
  14 H :    0.157214
  15 H :    0.196692
  16 H :    0.180606
  17 H :    0.181053
  18 H :    0.176193
  19 H :    0.174406

-------------------------------
LOEWDIN REDUCED ORBITAL CHARGES
-------------------------------
  0 C s       :     2.968818  s :     2.968818
      pz      :     1.148362  p :     3.377563
      px      :     1.137811
      py      :     1.091390
      dz2     :     0.004859  d :     0.063100
      dxz     :     0.017494
      dyz     :     0.016279
      dx2y2   :     0.010258
      dxy     :     0.014210

  1 C s       :     2.907156  s :     2.907156
      pz      :     1.096421  p :     3.218842
      px      :     1.041624
      py      :     1.080798
      dz2     :     0.010883  d :     0.093705
      dxz     :     0.023681
      dyz     :     0.022251
      dx2y2   :     0.017295
      dxy     :     0.019595

  2 C s       :     2.967688  s :     2.967688
      pz      :     1.134083  p :     3.378829
      px      :     1.115486
      py      :     1.129260
      dz2     :     0.008360  d :     0.063248
      dxz     :     0.016792
      dyz     :     0.013730
      dx2y2   :     0.012251
      dxy     :     0.012115

  3 C s       :     2.861822  s :     2.861822
      pz      :     0.990671  p :     2.972575
      px      :     0.922442
      py      :     1.059462
      dz2     :     0.014100  d :     0.120121
      dxz     :     0.033971
      dyz     :     0.027604
      dx2y2   :     0.022193
      dxy     :     0.022254

  4 O s       :     3.457972  s :     3.457972
      pz      :     1.653722  p :     4.661099
      px      :     1.326044
      py      :     1.681333
      dz2     :     0.076077  d :     0.484047
      dxz     :     0.128297
      dyz     :     0.054519
      dx2y2   :     0.119687
      dxy     :     0.105467

  5 C s       :     2.737041  s :     2.737041
      pz      :     0.903728  p :     2.635215
      px      :     0.909891
      py      :     0.821596
      dz2     :     0.051680  d :     0.272766
      dxz     :     0.075353
      dyz     :     0.035447
      dx2y2   :     0.053633
      dxy     :     0.056654

  6 O s       :     3.552580  s :     3.552580
      pz      :     1.486190  p :     4.668983
      px      :     1.725318
      py      :     1.457475
      dz2     :     0.048762  d :     0.214495
      dxz     :     0.044498
      dyz     :     0.058172
      dx2y2   :     0.031933
      dxy     :     0.031131

  7 C s       :     2.957435  s :     2.957435
      pz      :     1.096286  p :     3.321461
      px      :     1.100125
      py      :     1.125050
      dz2     :     0.012403  d :     0.056965
      dxz     :     0.013682
      dyz     :     0.009220
      dx2y2   :     0.009379
      dxy     :     0.012281

  8 H s       :     0.802171  s :     0.802171
      pz      :     0.019680  p :     0.043558
      px      :     0.010239
      py      :     0.013640

  9 H s       :     0.792169  s :     0.792169
      pz      :     0.012526  p :     0.044341
      px      :     0.018039
      py      :     0.013776

 10 H s       :     0.802565  s :     0.802565
      pz      :     0.015567  p :     0.043750
      px      :     0.019576
      py      :     0.008606

 11 H s       :     0.793008  s :     0.793008
      pz      :     0.020548  p :     0.042799
      px      :     0.009150
      py      :     0.013101

 12 H s       :     0.800231  s :     0.800231
      pz      :     0.009620  p :     0.043676
      px      :     0.010747
      py      :     0.023309

 13 H s       :     0.800672  s :     0.800672
      pz      :     0.021249  p :     0.043700
      px      :     0.009704
      py      :     0.012746

 14 H s       :     0.799064  s :     0.799064
      pz      :     0.014047  p :     0.043722
      px      :     0.021122
      py      :     0.008552

 15 H s       :     0.759548  s :     0.759548
      pz      :     0.010219  p :     0.043760
      px      :     0.011107
      py      :     0.022434

 16 H s       :     0.778694  s :     0.778694
      pz      :     0.018192  p :     0.040699
      px      :     0.006985
      py      :     0.015522

 17 H s       :     0.774311  s :     0.774311
      pz      :     0.011014  p :     0.044636
      px      :     0.009120
      py      :     0.024502

 18 H s       :     0.780043  s :     0.780043
      pz      :     0.007222  p :     0.043764
      px      :     0.023062
      py      :     0.013480

 19 H s       :     0.781257  s :     0.781257
      pz      :     0.024260  p :     0.044337
      px      :     0.011523
      py      :     0.008554


---------------------------------
LOEWDIN BOND ORDERS (THRESH 0.050000)
---------------------------------
B(  0-C ,  1-C ) :   1.1081 B(  0-C ,  2-C ) :   0.0704 B(  0-C ,  3-C ) :   0.0679 
B(  0-C ,  8-H ) :   0.9225 B(  0-C ,  9-H ) :   0.9152 B(  0-C , 10-H ) :   0.9240 
B(  1-C ,  2-C ) :   1.1074 B(  1-C ,  3-C ) :   1.0060 B(  1-C ,  4-O ) :   0.1617 
B(  1-C , 11-H ) :   0.8556 B(  2-C ,  3-C ) :   0.0813 B(  2-C , 12-H ) :   0.9235 
B(  2-C , 13-H ) :   0.9210 B(  2-C , 14-H ) :   0.9210 B(  3-C ,  4-O ) :   1.2941 
B(  3-C ,  5-C ) :   0.0866 B(  3-C ,  6-O ) :   0.0743 B(  3-C , 15-H ) :   0.8021 
B(  3-C , 16-H ) :   0.8207 B(  4-O ,  5-C ) :   1.4513 B(  4-O ,  6-O ) :   0.4619 
B(  4-O ,  7-C ) :   0.1856 B(  4-O , 15-H ) :   0.0909 B(  4-O , 16-H ) :   0.0936 
B(  5-C ,  6-O ) :   2.1761 B(  5-C ,  7-C ) :   0.9738 B(  6-O ,  7-C ) :   0.1844 
B(  7-C , 17-H ) :   0.8969 B(  7-C , 18-H ) :   0.9070 B(  7-C , 19-H ) :   0.9023 


------------------------------------------
LOEWDIN REDUCED ORBITAL POPULATIONS PER MO
-------------------------------------------
THRESHOLD FOR PRINTING IS 0.1%%
                      0         1         2         3         4         5   
                 -18.99733 -18.92702 -10.15551 -10.08586 -10.04530 -10.03899
                   2.00000   2.00000   2.00000   2.00000   2.00000   2.00000
                  --------  --------  --------  --------  --------  --------
 1 C  s               0.0       0.0       0.0       0.0      99.6       0.0
 3 C  s               0.0       0.0       0.0      99.4       0.0       0.0
 4 O  s              99.9       0.0       0.0       0.0       0.0       0.0
 4 O  px              0.0       0.0       0.1       0.1       0.0       0.0
 4 O  dxz             0.0       0.0       0.0       0.1       0.0       0.0
 4 O  dx2y2           0.0       0.0       0.2       0.0       0.0       0.0
 5 C  s               0.0       0.0      98.9       0.0       0.0       0.0
 6 O  s               0.0      99.9       0.0       0.0       0.0       0.0
 6 O  pz              0.0       0.0       0.1       0.0       0.0       0.0
 6 O  dyz             0.0       0.0       0.2       0.0       0.0       0.0
 7 C  s               0.0       0.0       0.0       0.0       0.0      99.7

                      6         7         8         9        10        11   
                 -10.02599 -10.02026  -1.07241  -0.97486  -0.78600  -0.72790
                   2.00000   2.00000   2.00000   2.00000   2.00000   2.00000
                  --------  --------  --------  --------  --------  --------
 0 C  s               0.0      99.7       0.0       0.0      10.2       2.6
 0 C  pz              0.0       0.0       0.0       0.0       0.5       0.0
 0 C  px              0.0       0.0       0.1       0.1       0.5       0.0
 0 C  py              0.0       0.0       0.0       0.0       2.3       0.3
 1 C  s               0.0       0.0       0.3       0.2      25.9       2.6
 1 C  pz              0.0       0.0       0.1       0.0       0.6       0.0
 1 C  px              0.0       0.0       0.6       0.3       0.0       2.0
 1 C  py              0.0       0.1       0.1       0.0       0.2       0.0
 2 C  s              99.7       0.0       0.0       0.0      11.0       3.9
 2 C  pz              0.0       0.0       0.0       0.0       0.7       0.1
 2 C  px              0.0       0.0       0.0       0.0       1.5       0.0
 2 C  py              0.0       0.0       0.0       0.0       1.1       0.1
 3 C  s               0.0       0.0       4.5       1.8      10.8       1.9
 3 C  pz              0.0       0.0       1.3       0.8       0.7       0.1
 3 C  px              0.0       0.0       3.7       0.6       3.9       1.3
 3 C  py              0.0       0.0       0.7       0.4       0.1       0.2
 3 C  dxz             0.0       0.0       0.2       0.1       0.1       0.1
 3 C  dxy             0.0       0.0       0.1       0.1       0.0       0.0
 4 O  s               0.0       0.0      42.7      15.1       0.6       0.5
 4 O  pz              0.0       0.0       1.1       0.1       0.4       1.2
 4 O  px              0.0       0.0       1.1       0.9       5.6       6.8
 4 O  py              0.0       0.0       0.7       0.1       0.3       0.5
 4 O  dz2             0.0       0.0       0.1       0.0       0.0       0.4
 4 O  dxz             0.0       0.0       0.1       0.8       0.2       0.0
 4 O  dyz             0.0       0.0       0.1       0.1       0.1       0.1
 4 O  dx2y2           0.0       0.0       0.5       0.1       0.1       0.8
 4 O  dxy             0.0       0.0       0.0       0.5       0.3       0.0
 5 C  s               0.0       0.0      16.1       4.4       1.0       5.4
 5 C  pz              0.0       0.0       0.4       9.2       1.3       7.4
 5 C  px              0.0       0.0       4.5       8.3       0.5       2.7
 5 C  py              0.0       0.0       0.2       5.5       0.8       4.1
 5 C  dz2             0.0       0.0       0.0       0.5       0.0       0.0
 5 C  dxz             0.0       0.0       0.2       0.1       0.0       0.1
 5 C  dyz             0.0       0.0       0.3       0.8       0.0       0.0
 5 C  dx2y2           0.0       0.0       0.4       0.5       0.1       0.0
 5 C  dxy             0.0       0.0       0.2       0.0       0.0       0.1
 6 O  s               0.0       0.0      11.2      43.2       0.6       1.8
 6 O  pz              0.0       0.0       1.6       2.3       0.1       0.6
 6 O  px              0.0       0.0       0.5       0.2       0.0       0.1
 6 O  py              0.0       0.0       0.9       1.3       0.1       0.3
 6 O  dz2             0.0       0.0       0.0       0.1       0.0       0.3
 6 O  dxz             0.0       0.0       0.5       0.1       0.0       0.0
 6 O  dyz             0.0       0.0       0.5       0.1       0.1       0.6
 6 O  dx2y2           0.0       0.0       0.0       0.1       0.0       0.2
 6 O  dxy             0.0       0.0       0.3       0.0       0.0       0.0
 7 C  s               0.0       0.0       1.1       0.3       1.3      28.0
 7 C  pz              0.0       0.0       0.6       0.4       0.0       0.2
 7 C  px              0.0       0.0       1.0       0.0       0.2       0.5
 7 C  py              0.0       0.0       0.3       0.2       0.0       0.1
 8 H  s               0.0       0.0       0.0       0.0       1.3       0.4
 9 H  s               0.0       0.0       0.0       0.0       1.3       0.3
10 H  s               0.0       0.0       0.0       0.0       1.3       0.5
11 H  s               0.0       0.0       0.0       0.0       3.2       0.4
11 H  pz              0.0       0.0       0.0       0.0       0.2       0.0
12 H  s               0.0       0.0       0.0       0.0       1.4       0.6
13 H  s               0.0       0.0       0.0       0.0       1.4       0.7
14 H  s               0.0       0.0       0.0       0.0       1.4       0.7
15 H  s               0.0       0.0       0.4       0.1       1.3       0.3
16 H  s               0.0       0.0       0.3       0.1       1.5       0.3
17 H  s               0.0       0.0       0.0       0.0       0.2       5.2
17 H  py              0.0       0.0       0.0       0.0       0.0       0.4
18 H  s               0.0       0.0       0.1       0.0       0.1       4.8
18 H  px              0.0       0.0       0.0       0.0       0.0       0.3
18 H  py              0.0       0.0       0.0       0.0       0.0       0.1
19 H  s               0.0       0.0       0.1       0.0       0.2       5.4
19 H  pz              0.0       0.0       0.0       0.0       0.0       0.4

                     12        13        14        15        16        17   
                  -0.66225  -0.65859  -0.55429  -0.53122  -0.46933  -0.45239
                   2.00000   2.00000   2.00000   2.00000   2.00000   2.00000
                  --------  --------  --------  --------  --------  --------
 0 C  s               0.1      29.0       2.8       1.6       0.5       0.2
 0 C  pz              0.0       0.2       0.1       0.3       3.1       0.8
 0 C  px              0.5       0.0       1.1       1.0       1.6       0.0
 0 C  py              0.1       0.5       3.4       2.8       0.1       1.7
 1 C  s               0.0       0.0      10.4       3.5       0.1       0.8
 1 C  pz              0.0       5.3       0.3       6.6       3.1       0.1
 1 C  px              8.5       0.4       2.8       0.1       0.0       2.0
 1 C  py              1.6      10.1       1.2       1.0       3.6       0.1
 1 C  dxz             0.2       0.0       0.0       0.1       0.0       0.0
 1 C  dx2y2           0.0       0.1       0.0       0.0       0.0       0.0
 1 C  dxy             0.0       0.2       0.0       0.0       0.0       0.0
 2 C  s              14.9      11.6       5.6       0.1       0.0       0.2
 2 C  pz              0.0       0.4       1.7       2.0       0.9       0.6
 2 C  px              0.5       0.0       5.3       0.1       0.0       0.3
 2 C  py              0.1       0.6       0.9       0.1       1.2       2.0
 3 C  s              12.4       2.9       0.2       5.8       0.0       0.2
 3 C  pz              0.1       0.5       0.1      19.0       0.0       2.7
 3 C  px              0.1       0.0       6.0       0.2       6.2       0.5
 3 C  py              0.1       0.7       4.3       0.8      13.8       1.7
 3 C  dxz             0.0       0.0       0.4       0.0       0.0       0.0
 3 C  dyz             0.0       0.0       0.1       0.1       0.0       0.0
 3 C  dxy             0.0       0.0       0.0       0.2       0.0       0.0
 4 O  s               0.9       0.1       1.4       3.8       0.9       0.1
 4 O  pz              0.8       0.3       0.9       4.0       0.6       2.2
 4 O  px             10.7       0.7      14.1      10.9       1.2       2.9
 4 O  py              0.3       0.2       0.2       0.2      16.4       6.1
 4 O  dz2             0.0       0.0       0.3       0.1       0.0       0.6
 4 O  dxz             1.2       0.3       0.1       0.6       0.0       0.0
 4 O  dyz             0.2       0.0       0.0       0.2       0.5       0.0
 4 O  dx2y2           0.3       0.0       0.3       0.0       1.2       0.2
 4 O  dxy             0.6       0.2       0.2       0.0       0.0       0.1
 5 C  s               0.5       0.1       2.4       2.0       0.6       2.9
 5 C  pz              0.2       0.0       0.8       0.2       0.1       4.0
 5 C  px              5.5       0.4       1.3       1.3       4.5       7.8
 5 C  py              0.1       0.0       0.2       0.4       4.8       2.5
 5 C  dxz             0.2       0.0       0.0       0.0       0.0       0.0
 5 C  dxy             0.1       0.0       0.0       0.0       0.1       0.1
 6 O  s               0.0       0.0       0.6       1.5       0.0       5.4
 6 O  pz              0.0       0.0       0.4       0.4       0.0      16.1
 6 O  px              0.2       0.0       0.3       1.4       3.6       0.7
 6 O  py              0.0       0.0       0.1       0.4       2.3       1.2
 6 O  dz2             0.0       0.0       0.0       0.0       0.0       0.8
 6 O  dxz             0.2       0.0       0.1       0.1       0.2       0.0
 6 O  dyz             0.0       0.0       0.1       0.1       0.2       0.3
 6 O  dx2y2           0.0       0.0       0.0       0.0       0.6       0.0
 6 O  dxy             0.1       0.0       0.0       0.1       0.0       0.2
 7 C  s              11.1       1.1       1.9       0.4       1.0       0.8
 7 C  pz              0.0       0.0       0.4       0.4       6.3       4.0
 7 C  px              0.6       0.1       2.1       0.9       2.4       0.6
 7 C  py              0.0       0.0       0.4       0.1       0.4      14.4
 7 C  dxz             0.0       0.0       0.0       0.0       0.1       0.1
 7 C  dyz             0.0       0.0       0.0       0.0       0.0       0.2
 8 H  s               0.0       6.4       1.9       2.0       0.0       0.0
 8 H  pz              0.0       0.4       0.1       0.1       0.0       0.0
 8 H  py              0.0       0.1       0.0       0.0       0.0       0.0
 9 H  s               0.0       6.9       1.4       0.4       0.1       0.9
 9 H  pz              0.0       0.1       0.0       0.0       0.0       0.0
 9 H  px              0.0       0.3       0.1       0.0       0.0       0.0
 9 H  py              0.0       0.2       0.0       0.0       0.0       0.0
10 H  s               0.1       6.8       1.5       0.7       2.0       0.1
10 H  pz              0.0       0.2       0.0       0.0       0.0       0.0
10 H  px              0.0       0.3       0.0       0.0       0.1       0.0
11 H  s               0.0       0.0       5.3       4.8       1.3       0.0
11 H  pz              0.0       0.0       0.3       0.2       0.0       0.0
12 H  s               3.3       3.3       2.1       0.1       0.2       1.0
12 H  py              0.2       0.2       0.1       0.0       0.0       0.0
13 H  s               3.3       2.7       3.2       0.5       0.6       0.1
13 H  pz              0.2       0.1       0.1       0.0       0.0       0.0
14 H  s               3.9       2.4       3.4       0.0       0.1       0.1
14 H  pz              0.1       0.1       0.1       0.0       0.0       0.0
14 H  px              0.2       0.1       0.1       0.0       0.0       0.0
15 H  s               2.5       1.1       0.4       6.4       5.5       0.3
15 H  py              0.2       0.1       0.0       0.3       0.1       0.0
16 H  s               3.2       0.6       0.0       7.7       2.4       1.0
16 H  pz              0.2       0.0       0.0       0.1       0.1       0.0
16 H  py              0.1       0.0       0.0       0.3       0.0       0.0
17 H  s               2.9       0.3       1.1       0.2       0.4       4.8
17 H  pz              0.0       0.0       0.0       0.0       0.1       0.1
17 H  py              0.2       0.0       0.1       0.0       0.0       0.1
18 H  s               3.1       0.3       1.4       0.5       1.4       0.0
18 H  px              0.2       0.0       0.0       0.0       0.0       0.0
19 H  s               2.3       0.2       0.6       0.2       2.2       2.5
19 H  pz              0.1       0.0       0.0       0.0       0.0       0.1

                     18        19        20        21        22        23   
                  -0.44481  -0.42373  -0.40616  -0.39268  -0.38089  -0.37086
                   2.00000   2.00000   2.00000   2.00000   2.00000   2.00000
                  --------  --------  --------  --------  --------  --------
 0 C  s               0.0       0.4       0.1       0.0       0.0       0.0
 0 C  pz              1.3       8.8       2.3       2.1       0.0       2.8
 0 C  px              0.5       0.8       3.2      15.3       0.3      11.3
 0 C  py              2.3       4.1       4.2       0.1       0.9       1.8
 0 C  dyz             0.0       0.0       0.0       0.0       0.0       0.1
 1 C  s               0.2       0.6       0.1       0.0       0.1       0.0
 1 C  pz              5.3       2.0       3.5       2.6       0.5       2.3
 1 C  px              1.8       5.0       3.4       1.6       0.2       0.6
 1 C  py              0.9       3.8       0.3       0.8       2.4       5.4
 1 C  dx2y2           0.0       0.0       0.0       0.1       0.0       0.0
 2 C  s               0.0       0.1       0.0       0.1       0.0       0.0
 2 C  pz              4.6       0.1       9.4       0.1       0.0       2.3
 2 C  px              0.5       0.8       3.6       0.4      10.4      12.7
 2 C  py              0.1      13.9       0.0       6.3       2.1       2.1
 2 C  dyz             0.0       0.0       0.0       0.0       0.1       0.1
 3 C  s               0.0       0.3       0.6       0.0       0.2       0.1
 3 C  pz              0.4       0.2       6.4       0.7       1.2       0.2
 3 C  px              4.0       0.1       1.1       1.0       0.5       0.0
 3 C  py              1.2       1.8       1.3       7.6       0.4       0.3
 3 C  dyz             0.0       0.0       0.0       0.1       0.0       0.0
 3 C  dx2y2           0.0       0.1       0.1       0.0       0.0       0.0
 3 C  dxy             0.0       0.0       0.0       0.0       0.0       0.1
 4 O  s               0.8       0.1       0.1       0.6       0.8       0.1
 4 O  pz             18.7       0.9       0.3       1.8       0.4       0.2
 4 O  px              0.3       0.0       0.2       0.6       1.2       2.4
 4 O  py              0.2       5.0       1.5       0.8       3.2       1.4
 4 O  dz2             0.1       0.0       0.2       0.1       0.1       0.0
 4 O  dxz             0.5       0.0       1.5       0.0       0.0       0.1
 4 O  dyz             0.0       0.0       0.0       0.0       0.1       0.0
 4 O  dx2y2           0.0       0.0       0.0       0.4       0.2       0.0
 4 O  dxy             0.0       0.7       0.0       0.7       0.2       0.0
 5 C  s               1.1       0.1       0.2       0.2       0.2       0.1
 5 C  pz              6.1       0.5       4.7       1.0       0.2       1.2
 5 C  px              0.4       0.5       1.4       1.5       0.8       0.7
 5 C  py              3.0       6.4       0.5       1.7       0.1       0.4
 5 C  dz2             0.0       0.0       0.0       0.0       0.1       0.1
 5 C  dxz             0.2       0.0       0.0       0.0       0.0       0.0
 5 C  dx2y2           0.0       0.0       0.0       0.0       0.2       0.1
 5 C  dxy             0.0       0.0       0.0       0.1       0.2       0.0
 6 O  s               6.1       1.8       1.7       1.0       0.3       0.8
 6 O  pz              2.8       6.2       1.2       2.8       0.9       2.6
 6 O  px              1.2       1.7       3.2       3.6       0.8       0.2
 6 O  py             12.5       0.0       4.1       0.5       0.5       3.2
 6 O  dz2             0.2       0.2       0.1       0.0       0.0       0.0
 6 O  dxz             0.0       0.1       0.1       0.1       0.1       0.0
 6 O  dyz             0.3       0.0       0.0       0.1       0.0       0.0
 6 O  dx2y2           0.1       0.1       0.0       0.0       0.0       0.0
 6 O  dxy             0.1       0.0       0.0       0.2       0.0       0.0
 7 C  pz              7.4       3.4       0.8      13.9       0.5       7.2
 7 C  px              1.7       3.5       4.0       0.1      23.1       6.7
 7 C  py              1.1       3.4       8.5       1.2      11.9       0.1
 7 C  dz2             0.0       0.0       0.0       0.0       0.2       0.2
 7 C  dxy             0.0       0.0       0.0       0.0       0.2       0.0
 8 H  s               0.9       0.4       1.4       2.2       0.3       4.8
 9 H  s               0.3       4.9       1.1       4.9       0.0       2.5
 9 H  px              0.0       0.1       0.0       0.0       0.0       0.0
 9 H  py              0.0       0.0       0.0       0.1       0.0       0.1
10 H  s               0.6       0.8       2.7       2.1       0.1       1.0
10 H  pz              0.0       0.0       0.0       0.1       0.0       0.1
11 H  s               1.8       1.4       0.4       0.7       0.1       0.0
12 H  s               0.2       6.0       1.4       2.1       2.6       2.3
12 H  py              0.0       0.1       0.1       0.0       0.1       0.1
13 H  s               1.1       0.9       1.7       0.1       1.5       4.5
14 H  s               0.9       0.0       4.3       0.4       2.6       1.9
14 H  pz              0.0       0.0       0.0       0.0       0.1       0.1
15 H  s               0.1       1.5       0.5       2.4       0.2       0.5
16 H  s               0.1       0.0       4.4       2.9       0.4       0.0
17 H  s               1.7       1.1       5.7       2.5       1.8       0.8
17 H  px              0.0       0.1       0.0       0.0       0.2       0.0
17 H  py              0.1       0.0       0.1       0.1       0.0       0.1
18 H  s               0.0       3.3       0.0       0.2      18.0       2.6
18 H  px              0.0       0.1       0.0       0.0       0.2       0.0
19 H  s               3.4       0.3       0.6       5.7       4.5       6.8
19 H  pz              0.1       0.0       0.0       0.1       0.2       0.1

                     24        25        26        27        28        29   
                  -0.36019  -0.34151  -0.33116  -0.31659  -0.30744  -0.29833
                   2.00000   2.00000   2.00000   2.00000   2.00000   2.00000
                  --------  --------  --------  --------  --------  --------
 0 C  s               0.0       0.0       0.2       0.0       0.5       0.4
 0 C  pz             19.1       3.3       1.6       1.6       2.2       7.3
 0 C  px              2.6       1.3       0.1      12.4       1.6       2.1
 0 C  py              5.0       0.9       3.8       3.8       8.3       7.6
 0 C  dxz             0.2       0.1       0.0       0.3       0.1       0.0
 0 C  dyz             0.0       0.0       0.0       0.2       0.3       0.0
 0 C  dx2y2           0.0       0.0       0.0       0.1       0.0       0.1
 0 C  dxy             0.0       0.0       0.1       0.3       0.0       0.1
 1 C  s               0.0       0.1       0.1       0.0       0.4       0.1
 1 C  pz              0.0       0.6       1.9       1.6      10.2       7.5
 1 C  px              0.1       0.1       1.0      12.4       2.1       5.0
 1 C  py              0.0       0.0       2.1       4.1      11.0       4.3
 1 C  dz2             0.2       0.0       0.0       0.0       0.2       0.0
 1 C  dxz             0.0       0.1       0.0       0.3       0.2       0.0
 1 C  dyz             0.1       0.0       0.0       0.2       0.6       0.0
 1 C  dx2y2           0.0       0.0       0.2       0.0       0.0       0.2
 1 C  dxy             0.0       0.0       0.0       0.2       0.0       0.3
 2 C  s               0.0       0.0       0.0       0.7       0.2       0.1
 2 C  pz             18.8       1.3       3.7       3.5       4.1       2.1
 2 C  px              3.7       0.4       4.8       7.8       1.2       0.5
 2 C  py              5.5       1.4       4.5       9.4       3.1       1.8
 2 C  dz2             0.1       0.0       0.0       0.0       0.2       0.0
 2 C  dxz             0.2       0.0       0.0       0.1       0.1       0.0
 2 C  dyz             0.0       0.0       0.1       0.0       0.2       0.0
 2 C  dx2y2           0.1       0.0       0.2       0.0       0.0       0.2
 3 C  s               0.0       0.1       0.3       0.4       0.3       0.6
 3 C  pz              0.1       1.8       0.1       1.7       1.9       6.6
 3 C  px              0.0       4.0       2.6       4.5       0.3       4.8
 3 C  py              0.1       2.5       5.2       0.1       1.5       4.3
 3 C  dxz             0.0       0.0       0.1       0.1       0.0       0.0
 3 C  dyz             0.0       0.1       0.0       0.1       0.2       0.3
 3 C  dx2y2           0.0       0.0       0.1       0.0       0.1       0.4
 3 C  dxy             0.0       0.0       0.0       0.0       0.0       0.2
 4 O  s               0.1       0.7       1.7       0.1       0.0       1.4
 4 O  pz              0.0      12.8      10.4       0.7       0.0       8.6
 4 O  px              0.3       0.1       0.2       1.1       0.0       0.6
 4 O  py              1.0       0.1       9.0       0.2       1.3       5.8
 4 O  dz2             0.1       0.0       0.0       0.1       0.1       0.4
 4 O  dxz             0.0       0.1       0.4       0.0       0.0       0.1
 4 O  dyz             0.0       0.0       0.1       0.2       0.1       0.3
 4 O  dx2y2           0.0       0.1       0.3       0.3       0.1       0.8
 4 O  dxy             0.0       0.8       0.1       0.5       0.0       0.0
 5 C  s               0.0       0.1       0.2       0.0       0.0       0.1
 5 C  pz              0.4       1.0       4.7       0.5       0.3       0.6
 5 C  px              0.1       0.3       0.2       0.7       0.0       0.9
 5 C  py              0.1       7.6       0.7       0.4       0.9       0.2
 5 C  dz2             0.0       0.2       0.2       0.1       0.1       0.0
 5 C  dxz             0.0       0.3       0.3       0.0       0.0       0.1
 5 C  dx2y2           0.0       0.1       0.0       0.0       0.1       0.0
 5 C  dxy             0.0       0.0       0.2       0.0       0.0       0.1
 6 O  s               0.1       0.4       0.8       0.0       0.0       0.3
 6 O  pz              0.1      13.3       0.5       1.8       2.8       1.5
 6 O  px              0.0       0.5       0.5       0.2       0.0       0.1
 6 O  py              1.0       3.9      11.8       2.5       3.0       1.3
 6 O  dz2             0.0       0.2       0.1       0.0       0.0       0.1
 6 O  dxz             0.0       0.1       0.1       0.0       0.0       0.1
 6 O  dyz             0.0       0.1       0.1       0.0       0.0       0.0
 6 O  dxy             0.0       0.0       0.0       0.0       0.0       0.2
 7 C  s               0.0       0.1       0.2       0.0       0.0       0.1
 7 C  pz              1.2       1.7       2.7       0.3       0.1       0.1
 7 C  px              0.2       2.1       3.1       0.8       0.0       0.2
 7 C  py              0.2      10.8       0.1       0.2       0.4       0.1
 7 C  dz2             0.0       0.1       0.0       0.0       0.0       0.0
 7 C  dx2y2           0.0       0.1       0.0       0.0       0.0       0.0
 8 H  s               8.2       1.6       0.0       1.0       6.8       0.4
 8 H  px              0.2       0.0       0.0       0.1       0.0       0.0
 8 H  py              0.0       0.0       0.0       0.1       0.0       0.1
 9 H  s               0.0       0.1       1.3      11.5       0.1       1.1
 9 H  pz              0.2       0.0       0.0       0.0       0.0       0.0
 9 H  px              0.0       0.0       0.0       0.0       0.0       0.1
 9 H  py              0.0       0.0       0.0       0.0       0.1       0.0
10 H  s               9.2       2.8       0.2       3.9       0.5       3.0
10 H  pz              0.0       0.0       0.0       0.1       0.0       0.0
10 H  px              0.2       0.0       0.0       0.0       0.1       0.0
10 H  py              0.0       0.0       0.0       0.0       0.1       0.1
11 H  s               0.0       0.6       0.1       0.6      18.1       0.1
11 H  pz              0.0       0.0       0.0       0.0       0.1       0.1
11 H  px              0.0       0.0       0.0       0.1       0.0       0.1
12 H  s               0.0       0.5       6.6       2.0       1.9       2.6
12 H  pz              0.2       0.0       0.0       0.0       0.1       0.0
12 H  px              0.0       0.0       0.0       0.2       0.0       0.0
13 H  s               9.0       1.8       0.0       0.1       6.9       0.0
13 H  px              0.1       0.0       0.0       0.1       0.0       0.0
14 H  s               9.6       0.1       4.6       1.2       0.4       1.3
14 H  px              0.2       0.0       0.0       0.0       0.0       0.0
15 H  s               0.0       0.9       1.9       0.6       0.3       9.3
15 H  px              0.0       0.0       0.1       0.0       0.0       0.0
16 H  s               0.0       4.5       0.2       0.1       2.9       0.0
17 H  s               0.5       8.2       0.5       0.2       0.4       0.0
18 H  s               0.0       0.3       1.8       0.7       0.0       0.0
19 H  s               0.7       1.6       0.3       0.0       0.1       0.0
19 H  py              0.0       0.1       0.0       0.0       0.0       0.0

                     30        31        32        33        34        35   
                  -0.26983  -0.23555  -0.01313   0.07322   0.07883   0.11472
                   2.00000   2.00000   0.00000   0.00000   0.00000   0.00000
                  --------  --------  --------  --------  --------  --------
 0 C  s               0.0       0.0       0.0       2.3       6.3       7.0
 0 C  pz              0.0       0.0       0.0       0.6       0.4       0.7
 0 C  px              0.2       0.1       0.0       0.2       1.2       0.7
 0 C  py              0.4       0.0       0.0       0.5       2.4       0.9
 0 C  dx2y2           0.0       0.0       0.0       0.1       0.2       0.1
 0 C  dxy             0.0       0.0       0.0       0.0       0.3       0.1
 1 C  s               0.2       0.0       0.1       0.5       7.2       1.8
 1 C  pz              0.7       0.0       0.0       0.2       1.5       0.8
 1 C  px              1.9       0.1       0.1       2.0       0.1       0.4
 1 C  py              0.9       0.1       0.0       0.1       1.7       0.2
 1 C  dz2             0.0       0.0       0.0       0.4       0.1       0.3
 1 C  dxz             0.1       0.0       0.0       0.2       0.0       0.0
 1 C  dx2y2           0.0       0.0       0.0       0.1       0.1       0.1
 1 C  dxy             0.0       0.0       0.0       0.1       0.1       0.2
 2 C  s               0.0       0.0       0.0       1.1      16.0       0.2
[...]
 1 C  dyz             1.1       0.0       0.0       0.0       0.0       0.0
 1 C  dxy             0.1       0.1       0.0       0.0       0.0       0.0
 2 C  s               0.0       0.1       0.0       0.0       6.5      53.9
 2 C  pz              0.1       0.0       0.0       0.0       0.0       0.0
 2 C  px              0.1       0.2       0.0       0.0       0.0       0.0
 2 C  dyz             0.4       0.0       0.0       0.0       0.0       0.0
 3 C  s               0.2       1.3       0.6       0.2       7.7       0.1
 3 C  pz              0.0       3.1       0.9       0.2       0.0       0.0
 3 C  px              0.0       4.0       1.0       0.3       0.0       0.0
 3 C  py              0.0       0.8       0.7       0.1       0.0       0.0
 3 C  dz2             0.4       0.1       0.0       0.0       0.0       0.0
 3 C  dxz             0.0       4.1       1.7       0.4       0.0       0.0
 3 C  dyz             0.5       2.5       0.1       0.1       0.0       0.0
 3 C  dx2y2           0.5       1.6       0.5       0.0       0.0       0.0
 3 C  dxy             0.2       3.5       1.1       0.3       0.0       0.0
 4 O  s               3.8      27.2       4.4       0.8       0.0       0.0
 4 O  pz              3.5       7.3       0.1       0.3       0.0       0.0
 4 O  px              1.4       2.2      31.9       0.7       0.0       0.0
 4 O  py              2.6       4.2       0.0       0.1       0.0       0.0
 4 O  dz2             1.1       1.5       4.5       0.0       0.0       0.0
 4 O  dxz             3.9       4.9       8.6       1.1       0.0       0.0
 4 O  dyz             3.9       4.1       0.2       0.5       0.0       0.0
 4 O  dx2y2           1.3      11.5      10.2       0.3       0.0       0.0
 4 O  dxy             2.2       2.4       5.9       0.6       0.0       0.0
 5 C  s               0.9       0.3       3.3       5.0       0.0       0.4
 5 C  pz              0.2       0.3       0.2       4.5       0.0       0.0
 5 C  px              0.4       1.4       6.2       0.9       0.0       0.0
 5 C  py              0.1       0.2       0.1       2.7       0.0       0.0
 5 C  dz2             0.0       0.6       2.1       1.0       0.0       0.0
 5 C  dxz            10.6       0.3       2.5       0.8       0.0       0.0
 5 C  dyz             0.2       0.0       0.0       4.0       0.0       0.0
 5 C  dx2y2           0.1       1.4       5.7       0.5       0.0       0.0
 5 C  dxy             6.4       0.2       1.7       0.4       0.0       0.0
 6 O  s               2.0       1.0       0.7      18.0       0.0       0.0
 6 O  pz              0.1       0.3       0.4      12.7       0.0       0.0
 6 O  px              9.1       0.3       0.0       1.9       0.0       0.0
 6 O  py              0.1       0.2       0.3       7.1       0.0       0.0
 6 O  dz2             4.6       0.2       0.2       4.8       0.0       0.0
 6 O  dxz             8.0       0.8       0.6       5.2       0.0       0.0
 6 O  dyz             1.1       0.6       1.1      19.0       0.0       0.0
 6 O  dx2y2           7.3       0.1       0.0       1.7       0.0       0.0
 6 O  dxy             4.6       0.5       0.3       3.0       0.0       0.0
 7 C  s               0.1       0.0       0.0       0.0      73.8      15.7
 7 C  pz              0.5       0.0       0.1       0.0       0.0       0.0
 7 C  px              1.6       0.0       0.1       0.0       0.0       0.0
 7 C  dz2             0.2       0.0       0.0       0.0       0.0       0.0
 7 C  dxz             1.5       0.0       0.1       0.0       0.0       0.0
 7 C  dyz             0.3       0.0       0.0       0.1       0.0       0.0
 7 C  dx2y2           0.1       0.0       0.1       0.2       0.0       0.0
 7 C  dxy             2.9       0.0       0.2       0.0       0.0       0.0
 8 H  s               0.1       0.0       0.0       0.0       0.0       0.0
 8 H  pz              0.2       0.0       0.0       0.0       0.0       0.0
 8 H  py              0.1       0.0       0.0       0.0       0.0       0.0
11 H  s               0.5       0.0       0.0       0.0       0.0       0.0
11 H  pz              0.7       0.0       0.0       0.0       0.0       0.0
11 H  px              0.2       0.0       0.0       0.0       0.0       0.0
11 H  py              0.4       0.0       0.0       0.0       0.0       0.0
13 H  pz              0.2       0.0       0.0       0.0       0.0       0.0
15 H  s               0.0       0.2       0.2       0.0       0.0       0.0
15 H  pz              0.1       0.0       0.0       0.0       0.0       0.0
15 H  px              0.9       0.4       0.2       0.0       0.0       0.0
15 H  py              0.0       0.2       0.2       0.0       0.0       0.0
16 H  s               0.0       0.6       0.0       0.0       0.0       0.0
16 H  pz              0.0       0.2       0.0       0.0       0.0       0.0
16 H  py              0.0       1.1       0.1       0.0       0.0       0.0
18 H  s               1.0       0.0       0.0       0.0       0.0       0.0
18 H  px              1.2       0.0       0.0       0.0       0.0       0.0
18 H  py              0.8       0.0       0.0       0.0       0.0       0.0
19 H  pz              0.1       0.0       0.0       0.0       0.0       0.0

                    216       217       218       219       220       221   
                  21.98745  22.06061  22.09554  22.23408  43.64749  43.75063
                   0.00000   0.00000   0.00000   0.00000   0.00000   0.00000
                  --------  --------  --------  --------  --------  --------
 0 C  s              59.2       4.1       1.8       1.6       0.0       0.0
 1 C  s               0.8      27.2      63.2       0.2       0.0       0.0
 2 C  s              36.3       1.2       1.7       0.0       0.0       0.0
 3 C  s               0.3      61.8      25.2       4.5       0.0       0.0
 4 O  s               0.0       0.1       0.1       0.1       5.5      94.5
 4 O  px              0.0       0.0       0.0       0.2       0.0       0.0
 5 C  s               1.0       3.2       1.8      92.6       0.0       0.0
 6 O  s               0.0       0.0       0.0       0.2      94.5       5.5
 7 C  s               2.1       2.2       5.7       0.1       0.0       0.0



                      *****************************
                      * MAYER POPULATION ANALYSIS *
                      *****************************

  NA   - Mulliken gross atomic population
  ZA   - Total nuclear charge
  QA   - Mulliken gross atomic charge
  VA   - Mayer's total valence
  BVA  - Mayer's bonded valence
  FA   - Mayer's free valence

  ATOM       NA         ZA         QA         VA         BVA        FA
  0 C      6.5002     6.0000    -0.5002     3.7760     3.7760    -0.0000
  1 C      6.0131     6.0000    -0.0131     3.5903     3.5903    -0.0000
  2 C      6.4762     6.0000    -0.4762     3.7796     3.7796    -0.0000
  3 C      6.2092     6.0000    -0.2092     3.5880     3.5880    -0.0000
  4 O      8.1580     8.0000    -0.1580     1.9302     1.9302    -0.0000
  5 C      5.5882     6.0000     0.4118     3.7902     3.7902    -0.0000
  6 O      8.4306     8.0000    -0.4306     1.9399     1.9399    -0.0000
  7 C      6.5233     6.0000    -0.5233     3.8751     3.8751    -0.0000
  8 H      0.8520     1.0000     0.1480     0.9672     0.9672     0.0000
  9 H      0.8378     1.0000     0.1622     0.9616     0.9616    -0.0000
 10 H      0.8519     1.0000     0.1481     0.9639     0.9639    -0.0000
 11 H      0.8501     1.0000     0.1499     0.9608     0.9608     0.0000
 12 H      0.8493     1.0000     0.1507     0.9638     0.9638     0.0000
 13 H      0.8542     1.0000     0.1458     0.9664     0.9664    -0.0000
 14 H      0.8483     1.0000     0.1517     0.9636     0.9636    -0.0000
 15 H      0.8230     1.0000     0.1770     0.9546     0.9546    -0.0000
 16 H      0.8504     1.0000     0.1496     0.9563     0.9563    -0.0000
 17 H      0.8264     1.0000     0.1736     0.9564     0.9564    -0.0000
 18 H      0.8247     1.0000     0.1753     0.9583     0.9583     0.0000
 19 H      0.8330     1.0000     0.1670     0.9604     0.9604    -0.0000

  Mayer bond orders larger than 0.100000
B(  0-C ,  1-C ) :   0.9156 B(  0-C ,  8-H ) :   0.9846 B(  0-C ,  9-H ) :   0.9699 
B(  0-C , 10-H ) :   0.9730 B(  1-C ,  2-C ) :   0.9086 B(  1-C ,  3-C ) :   0.9268 
B(  1-C , 11-H ) :   0.9538 B(  2-C , 12-H ) :   0.9733 B(  2-C , 13-H ) :   0.9790 
B(  2-C , 14-H ) :   0.9713 B(  3-C ,  4-O ) :   0.8007 B(  3-C , 15-H ) :   0.9656 
B(  3-C , 16-H ) :   0.9467 B(  4-O ,  5-C ) :   1.0541 B(  5-C ,  6-O ) :   1.8354 
B(  5-C ,  7-C ) :   0.9500 B(  7-C , 17-H ) :   0.9389 B(  7-C , 18-H ) :   0.9786 
B(  7-C , 19-H ) :   0.9752 

-------
TIMINGS
-------

Total SCF time: 0 days 0 hours 0 min 27 sec 

Total time                  ....      27.733 sec
Sum of individual times     ....      26.929 sec  ( 97.1%)

SCF preparation             ....       0.206 sec  (  0.7%)
Fock matrix formation       ....      24.281 sec  ( 87.6%)
  Startup                   ....       0.067 sec  (  0.3% of F)
  Split-RI-J                ....       4.639 sec  ( 19.1% of F)
  XC integration            ....      19.001 sec  ( 78.3% of F)
    Basis function eval.    ....       3.348 sec  ( 17.6% of XC)
    Density eval.           ....       5.343 sec  ( 28.1% of XC)
    XC-Functional eval.     ....       2.294 sec  ( 12.1% of XC)
    XC-Potential eval.      ....       5.651 sec  ( 29.7% of XC)
Diagonalization             ....       0.000 sec  (  0.0%)
Density matrix formation    ....       0.351 sec  (  1.3%)
Total Energy calculation    ....       0.038 sec  (  0.1%)
Population analysis         ....       0.147 sec  (  0.5%)
Orbital Transformation      ....       0.090 sec  (  0.3%)
Orbital Orthonormalization  ....       0.000 sec  (  0.0%)
DIIS solution               ....       1.788 sec  (  6.4%)
  MO trafo                  ....       0.000 sec  (  0.0 % of DIIS)
  Orb grad                  ....       0.000 sec  (  0.0 % of DIIS)
  Energy W gradient         ....       0.000 sec  (  0.0 % of DIIS)
  DIIS error                ....       0.014 sec  (  0.8 % of DIIS)
  DIIS work                 ....       1.692 sec  ( 94.7 % of DIIS)
  Form Q                    ....       0.000 sec  (  0.0 % of DIIS)
  Form QpQm                 ....       0.000 sec  (  0.0 % of DIIS)
  Exp/Cayley                ....       0.000 sec  (  0.0 % of DIIS)
  Orb update                ....       0.000 sec  (  0.0 % of DIIS)
  Wake-sleep                ....       0.034 sec  (  1.9 % of DIIS)
SOSCF solution              ....       0.028 sec  (  0.1%)
  MO trafo                  ....       0.028 sec  ( 99.7 % of SOSCF)
  Orb grad                  ....       0.000 sec  (  0.0 % of SOSCF)
  Rot update                ....       0.000 sec  (  0.0 % of SOSCF)
  Step                      ....       0.000 sec  (  0.0 % of SOSCF)
Finished LeanSCF after  27.8 sec

Maximum memory used throughout the entire LEANSCF-calculation: 23.6 MB


-------------------------------------------------------------------------------
                          DFT DISPERSION CORRECTION                            
                                                                               
                                DFTD4 V3.4.0                                   
-------------------------------------------------------------------------------
The R2SCAN3C composite method is recognized
Using three-body term ABC
Active option DFTDOPT                   ...         5   

-------------------------   ----------------
Dispersion correction           -0.005073002
-------------------------   ----------------

------------------   -----------------
gCP correction             0.011952420
------------------   -----------------

-------------------------   --------------------
FINAL SINGLE POINT ENERGY      -386.237409642186
-------------------------   --------------------


------------------------------------------------------------------------------
                              ORCA PROPERTY CALCULATIONS
------------------------------------------------------------------------------

GBWName                                 ... sp_gas.gbw
Number of atoms                         ...     20
Number of basis functions               ...    222
Max core memory                         ...   1024 MB

Electric properties:
Dipole moment                           ... YES
Quadrupole moment                       ...  NO
Static polarizability (Dipole/Dipole)   ...  NO
Static polarizability (Dipole/Quad.)    ...  NO
Static polarizability (Quad./Quad.)     ...  NO
Static polarizability (Velocity)        ...  NO

Atomic electric properties:
Dipole moment                           ...  NO
Quadrupole moment                       ...  NO
Static polarizability                   ...  NO

Choice of electric origin               ... Center of mass
Position of electric origin             ...    -0.000033     0.000002     0.000009

General magnetic properties:
Magnetizability                         ...  NO

EPR properties:
g-Tensor (aka g-matrix)                 ...  NO
Zero-Field splitting spin-orbit         ...  NO
Zero-field splitting spin-spin          ...  NO
Hyperfine couplings                     ...  NO (   0 nuclei)
Quadrupole couplings                    ...  NO (   0 nuclei)
Contact density                         ...  NO (   0 nuclei)

NMR properties:
Chemical shifts                         ...  NO (   0 nuclei)
Spin-rotation constants                 ...  NO (   0 nuclei)
Spin-spin couplings                     ...  NO (   0 nuclei,    0 pairs)

Choice of magnetic origin               ... GIAO
Position of magnetic origin             ...     0.000000     0.000000     0.000000

Properties with geometric perturbations:
SCF Hessian                             ...  NO
IR spectrum                             ...  NO
VCD spectrum                            ...  NO
X-ray spectroscopy properties:
SCF XES/XAS/RIXS spectra                ...  NO


-------------
DIPOLE MOMENT
-------------

Method             : SCF
Type of density    : Electron Density
Multiplicity       :   1
Irrep              :   0
Energy             :  -386.2442890597573637 Eh
Relativity type    : 
Basis              : AO
                                X                 Y                 Z
Electronic contribution:      8.557352397      -0.519014326      -1.804623865
Nuclear contribution   :     -9.135360506       0.888761442       2.380528547
                        -----------------------------------------
Total Dipole Moment    :     -0.578008109       0.369747116       0.575904682
                        -----------------------------------------
Magnitude (a.u.)       :      0.895808298
Magnitude (Debye)      :      2.276963740



--------------------
Rotational spectrum 
--------------------
 
Rotational constants in cm-1:             0.146533             0.033507             0.028688 
Rotational constants in MHz :          4392.943440          1004.504818           860.046848 

Dipole components along the rotational axes: 
x,y,z [a.u.] :    -0.520806     0.720371     0.110900 
x,y,z [Debye]:    -1.323785     1.831038     0.281887 

 

Dipole moment calculation done in   0.0 sec 

Maximum memory used throughout the entire PROP-calculation: 13.8 MB

--------------------------------
SUGGESTED CITATIONS FOR THIS RUN
--------------------------------

Below you find a list of papers that are relevant to this ORCA run
We neither can nor want to force you to cite these papers, but we appreciate if you do
You receive ORCA, which is the product of decades of hard work by many enthusiastic individuals, for free
The only thing we kindly ask in return is that you cite our papers,
We deeply appreciate it, if you show your appreciation for ORCA by not just citing the generic ORCA reference.

Please note that relegating all ORCA citations to the supporting information does *not* help us.
SI sections are not indexed - citations you put there will not count into any citation statistics
But we need these citations in order to attract the funding resources that allow us to do what we are doing

Therefore, if you are a happy ORCA user, please consider citing a few of the papers listed below in the main body of your paper

In addition to the list printed below, the program has created the file sp_gas.bibtex that contains the list in bibtex format
You can import this file easily into all common literature databanks and citation aid programs


List of essential papers. We consider these as the minimum necessary citations

  1. Neese,F.
     Software update: the ORCA program system, version 5.0
     WIRES Comput. Molec. Sci., 2022 12(1)e1606
     doi.org/10.1002/wcms.1606
  2. Grimme,S.; Hansen,A.; Ehlert,S.; Mewes,J.
     r2SCAN-3c: A 'Swiss army knife' composite electronic-structure method
     J. Chem. Phys., 2021 154 064103
     doi.org/10.1063/5.0040021

List of papers to cite with high priority. The work reported in these papers was absolutely
necessary for this run to complete.
Our perspective: the developers of density functionals and basis sets usually get cited in chemistry papers
Good! But without the algorithms to do something with them, the functionals or basis sets would not do anything.
Hence, in our opinion, the algorithm design and method developments papers are equally worthy of getting cited

  1. Neese,F.
     An improvement of the resolution of the identity approximation for the formation of the Coulomb matrix
     J. Comp. Chem., 2003 24(14)1740-1747
     doi.org/10.1002/jcc.10318
  2. Neese,F.
     The SHARK Integral Generation and Digestion System
     J. Comp. Chem., 2022  1-16
     doi.org/10.1002/jcc.26942
  3. Lehtola,S.; Steigemann,C.; Oliveira,M.; Marques,M.
     Recent developments in Libxc - A comprehensive library of functionals for density functional theory
     Software X, 2018 7 
     doi.org/10.1016/j.softx.2017.11.002
  4. Caldeweyher,E.; Bannwarth,C.; Grimme,S.
     Extension of the D3 dispersion coefficient model
     J. Chem. Phys., 2017 147 034112-XXXX
     doi.org/10.1063/1.4993215
  5. Caldeweyher,E.; Ehlert,S.; Hansen,A.; Neugebauer,H.; Spicher,S.; Bannwarth,C.; Grimme,S.
     A generally applicable atomic-charge dependent London dispersion correction
     J. Chem. Phys., 2019 150 154122-XXXX
     doi.org/10.1063/1.5090222
  6. Caldeweyher,E.; Mewes,J.; Ehlert,S.; Grimme,S.
     Extension and evaluation of the D4 London-dispersion model for periodic systems
     Phys. Chem. Chem. Phys., 2020 22(16)8499-8512
     doi.org/10.1039/D0CP00502A

List of suggested additional citations. These are papers that are important in the 'surrounding' of 
of this run, or papers that preceded the highly important papers. If you like your results we are grateful for a citation.

  1. Neese,F.
     The ORCA program system
     WIRES Comput. Molec. Sci., 2012 2(1)73-78
     doi.org/10.1002/wcms.81
  2. Neese,F.
     Software update: the ORCA program system, version 4.0
     WIRES Comput. Molec. Sci., 2018 8(1)1-6
     doi.org/10.1002/wcms.1327
  3. Neese,F.; Wennmohs,F.; Becker,U.; Riplinger,C.
     The ORCA quantum chemistry program package
     J. Chem. Phys., 2020 152 Art. No. L224108
     doi.org/10.1063/5.0004608

List of optional additional citations

  1. Neese,F.
     Approximate second-order SCF convergence for spin unrestricted wavefunctions
     Chem. Phys. Lett., 2000 325(1-3)93-98
     doi.org/10.1016/s0009-2614(00)00662-x

Timings for individual modules:

Sum of individual times          ...       30.596 sec (=   0.510 min)
Startup calculation              ...        1.428 sec (=   0.024 min)   4.7 %
SCF iterations                   ...       29.052 sec (=   0.484 min)  95.0 %
Property calculations            ...        0.117 sec (=   0.002 min)   0.4 %
                             ****ORCA TERMINATED NORMALLY****
TOTAL RUN TIME: 0 days 0 hours 0 minutes 31 seconds 439 msec
