18
 energy: -272.905748124616 gnorm: 0.005834486756 xtb: 6.7.1 (edcfbbe)
C           -1.66136493695889        1.52095819160454        0.27197577864056
C           -1.23136095193680        0.24938058717009       -0.45948911738407
C           -0.27236866944289       -0.64709325745724        0.33512478776727
H           -0.78399429236350       -0.96040079069682        1.25834492956769
C            0.08510831162518       -1.89983472945169       -0.46667779365536
C            0.98337427903099        0.08893878000126        0.80159405097672
O            1.74053281766747        0.68623758038462       -0.27253834595322
H           -0.82657677689974        2.22463878799738        0.39245398377236
H           -2.44889673206717        2.04005572008571       -0.28506697027438
H           -2.05496077568422        1.29182508884809        1.27324409106233
H           -0.76165939915224        0.51435101138446       -1.41847437410342
H           -2.12032973603720       -0.34787337543666       -0.70888884838229
H            0.74856332122702       -2.56126019901641        0.10205315822774
H            0.58649983133650       -1.64237628630234       -1.40934469907131
H           -0.81706358126829       -2.46596979113868       -0.72582228049823
H            1.62147902948543       -0.60557576365557        1.36924232198227
H            0.71854941639063        0.91653305529659        1.46862915489336
H            2.02465456293622       -0.02647025732883       -0.86301089133640
18
 energy: -272.905790842477 gnorm: 0.001495622540 xtb: 6.7.1 (edcfbbe)
C           -1.66248129628565        1.52038480387927        0.27072050440927
C           -1.23118004518643        0.25003093662984       -0.45893350423685
C           -0.27175086496567       -0.64659158274039        0.33528540032680
H           -0.78304142919428       -0.95979792439147        1.25826843668509
C            0.08452332853142       -1.89976691382570       -0.46627972405431
C            0.98428256475680        0.08817197663547        0.80186765852554
O            1.73843386998747        0.68492238093502       -0.27351867305163
H           -0.82974712941615        2.22141956431172        0.39364662012659
H           -2.44874032215014        2.04114847566918       -0.28540488287006
H           -2.05588508966564        1.28960269525486        1.26835947694816
H           -0.76223994804690        0.51567846906406       -1.41592816099559
H           -2.11930772121057       -0.34488838958069       -0.70843165969482
H            0.74802257373386       -2.56155226635885        0.10118483591043
H            0.58512246900477       -1.64157851804288       -1.40799223413389
H           -0.81715553147214       -2.46503375497296       -0.72493813640128
H            1.62469106669920       -0.60453076811697        1.36772359252978
H            0.72114345272639        0.91587031507079        1.46750879818389
H            2.02549572622719       -0.02742513497868       -0.85978948613221
18
 energy: -272.905796673962 gnorm: 0.001168365022 xtb: 6.7.1 (edcfbbe)
C           -1.66281157838151        1.51913582065663        0.27143318468972
C           -1.23070690227033        0.25054302401863       -0.45923964609638
C           -0.27216023918497       -0.64597998818948        0.33646453723718
H           -0.78351555003445       -0.95871339535416        1.25938743897294
C            0.08332844303617       -1.89905060006244       -0.46580496351855
C            0.98453634873683        0.08887431539840        0.80020959374275
O            1.73711340289301        0.68434374528948       -0.27645370825143
H           -0.83147493961789        2.21905153784543        0.39786435300348
H           -2.44691311652156        2.04080451154508       -0.28648027547745
H           -2.05962364571557        1.28679508017991        1.26581826784547
H           -0.76093449450359        0.51614060281536       -1.41472437387484
H           -2.11746465480903       -0.34442565474343       -0.70895112064187
H            0.74707354196099       -2.56088792957289        0.10095258967998
H            0.58325772467137       -1.64048459414635       -1.40721323723007
H           -0.81831727482315       -2.46377465808130       -0.72358785938350
H            1.62574972555090       -0.60347901242757        1.36482092136490
H            0.72305171972003        0.91624652650695        1.46591171614988
H            2.02999711745907       -0.02907485785120       -0.85705865796481
18
 energy: -272.905800583943 gnorm: 0.000619917508 xtb: 6.7.1 (edcfbbe)
C           -1.66423237989229        1.51907133159097        0.27181946200881
C           -1.23084724063549        0.25094566587799       -0.45897952034591
C           -0.27183085121213       -0.64562522829343        0.33626918418769
H           -0.78302877142939       -0.95760476398983        1.25951723704337
C            0.08289183062089       -1.89929942102478       -0.46542872034596
C            0.98526106695230        0.08906240691309        0.79926778296992
O            1.73643204089249        0.68389473767005       -0.27866866850329
H           -0.83248884051239        2.21843300883527        0.40132369040345
H           -2.44665507099897        2.04203377005478       -0.28751597033692
H           -2.06385744413546        1.28527932911304        1.26507254728413
H           -0.76006557163121        0.51711755973892       -1.41393631834902
H           -2.11717553314007       -0.34454582930484       -0.70970107619705
H            0.74687629192097       -2.56120936503993        0.10109887242621
H            0.58232151374530       -1.64058386166952       -1.40713346305876
H           -0.81922147652595       -2.46377094066940       -0.72255120416555
H            1.62695571046583       -0.60323572596472        1.36351541694600
H            0.72442605209791        0.91678141475580        1.46500914424942
H            2.03442426403412       -0.03067951436512       -0.85562970893676
18
 energy: -272.905800583943 gnorm: 0.000619917508 xtb: 6.7.1 (edcfbbe)
C           -1.66423237989229        1.51907133159097        0.27181946200881
C           -1.23084724063549        0.25094566587799       -0.45897952034591
C           -0.27183085121213       -0.64562522829343        0.33626918418769
H           -0.78302877142939       -0.95760476398983        1.25951723704337
C            0.08289183062089       -1.89929942102478       -0.46542872034596
C            0.98526106695230        0.08906240691309        0.79926778296992
O            1.73643204089249        0.68389473767005       -0.27866866850329
H           -0.83248884051239        2.21843300883527        0.40132369040345
H           -2.44665507099897        2.04203377005478       -0.28751597033692
H           -2.06385744413546        1.28527932911304        1.26507254728413
H           -0.76006557163121        0.51711755973892       -1.41393631834902
H           -2.11717553314007       -0.34454582930484       -0.70970107619705
H            0.74687629192097       -2.56120936503993        0.10109887242621
H            0.58232151374530       -1.64058386166952       -1.40713346305876
H           -0.81922147652595       -2.46377094066940       -0.72255120416555
H            1.62695571046583       -0.60323572596472        1.36351541694600
H            0.72442605209791        0.91678141475580        1.46500914424942
H            2.03442426403412       -0.03067951436512       -0.85562970893676
