 Entering Gaussian System
 *********************************************
 Gaussian 98:
 frequency output generated by the xtb code
 *********************************************
                         Standard orientation:
 --------------------------------------------------------------------
  Center     Atomic     Atomic              Coordinates (Angstroms)
  Number     Number      Type              X           Y           Z
 --------------------------------------------------------------------
    1          6             0       -2.479364    0.876977   -0.684616
    2          6             0       -1.843930   -0.496721   -0.491118
    3          6             0       -1.178779   -0.701841    0.877668
    4          6             0        0.318790   -0.377617    0.997748
    5          6             0        1.198852   -1.236477    0.063689
    6          6             0        2.142842   -0.262648   -0.647205
    7          6             0        1.354009    1.042327   -0.692955
    8          6             0        0.694202    1.082698    0.682611
    9          1             0       -3.035904    0.899017   -1.619539
   10          1             0       -3.170288    1.095127    0.127189
   11          1             0       -1.732107    1.663835   -0.722175
   12          1             0       -2.632521   -1.245826   -0.598459
   13          1             0       -1.124877   -0.673070   -1.291234
   14          1             0       -1.719290   -0.111758    1.621600
   15          1             0       -1.292153   -1.752268    1.159276
   16          1             0        0.583618   -0.590218    2.038669
   17          1             0        1.749916   -1.994445    0.619287
   18          1             0        0.578808   -1.755064   -0.667069
   19          1             0        3.048727   -0.119758   -0.055472
   20          1             0        2.433346   -0.615210   -1.636099
   21          1             0        1.988173    1.909074   -0.876309
   22          1             0        0.599292    0.996493   -1.478505
   23          1             0        1.422632    1.435699    1.415216
   24          1             0       -0.165023    1.747054    0.725474
 --------------------------------------------------------------------
     1 basis functions        1 primitive gaussians
     1 alpha electrons        1 beta electrons
 
 Harmonic frequencies (cm**-1), IR intensities (km*mol⁻¹),
 Raman scattering activities (A**4/amu), Raman depolarization ratios,
 reduced masses (AMU), force constants (mDyne/A) and normal coordinates:
                      1                      2                      3
                        a                      a                      a 
 Frequencies --    50.2231                75.4091               131.5302
 Red. masses --     7.7347                 6.2485                 7.8646
 Frc consts  --     0.0000                 0.0000                 0.0000
 IR Inten    --     0.0055                 0.0684                 0.0409
 Raman Activ --     0.0000                 0.0000                 0.0000
 Depolar     --     0.0000                 0.0000                 0.0000
 Atom AN      X      Y      Z        X      Y      Z        X      Y      Z
   1   6     0.53   0.09  -0.25     0.09   0.04   0.02    -0.11  -0.25  -0.27
   2   6    -0.04  -0.13   0.09    -0.31  -0.13   0.19    -0.06  -0.17   0.12
   3   6     0.00  -0.07   0.07    -0.03  -0.09   0.06    -0.04   0.26   0.18
   4   6    -0.00  -0.05   0.08    -0.03  -0.00  -0.15     0.04  -0.00  -0.02
   5   6     0.02   0.02   0.03    -0.07   0.05  -0.23    -0.20   0.02  -0.27
   6   6    -0.22   0.11  -0.18     0.26   0.07   0.25    -0.06  -0.02  -0.12
   7   6    -0.30   0.07   0.03     0.21   0.03   0.00     0.22   0.16   0.20
   8   6    -0.02  -0.04   0.16    -0.13   0.03  -0.16     0.21   0.01   0.20
   9   1     0.10   0.00  -0.04    -0.14  -0.04   0.10     0.10  -0.11  -0.15
  10   1     0.23   0.20  -0.05     0.20   0.19   0.10    -0.15  -0.08  -0.18
  11   1     0.25  -0.07  -0.20     0.10  -0.07  -0.23    -0.04  -0.06   0.02
  12   1    -0.11   0.05   0.12    -0.17   0.03   0.17    -0.00  -0.07   0.09
  13   1    -0.06  -0.20   0.02    -0.17  -0.16   0.01    -0.01  -0.09   0.05
  14   1    -0.00  -0.02   0.02     0.01  -0.05   0.05     0.04   0.19  -0.01
  15   1     0.00  -0.02   0.02     0.03  -0.03   0.01    -0.07   0.11   0.17
  16   1    -0.00  -0.03   0.02     0.03  -0.00  -0.05     0.05  -0.06  -0.03
  17   1     0.06   0.05   0.00    -0.11  -0.08  -0.11    -0.09  -0.06  -0.13
  18   1     0.00  -0.05   0.05    -0.01   0.13  -0.15    -0.10   0.08  -0.10
  19   1    -0.02   0.04  -0.12    -0.00   0.02   0.19     0.01  -0.10  -0.05
  20   1    -0.13   0.04  -0.08     0.20   0.04   0.10    -0.06   0.04  -0.06
  21   1    -0.11   0.03  -0.02     0.06   0.02   0.03     0.12   0.02   0.12
  22   1    -0.13   0.02   0.05     0.12  -0.02  -0.05     0.06   0.15   0.05
  23   1     0.04  -0.04   0.01    -0.10   0.05  -0.00     0.06  -0.05   0.08
  24   1     0.00  -0.00   0.12    -0.06  -0.02  -0.12     0.08   0.03   0.07
                      4                      5                      6
                        a                      a                      a 
 Frequencies --   218.3464               253.3206               257.6462
 Red. masses --     3.8479                 6.7793                 7.4665
 Frc consts  --     0.0000                 0.0000                 0.0000
 IR Inten    --     0.0528                 0.1166                 0.3650
 Raman Activ --     0.0000                 0.0000                 0.0000
 Depolar     --     0.0000                 0.0000                 0.0000
 Atom AN      X      Y      Z        X      Y      Z        X      Y      Z
   1   6    -0.18  -0.07  -0.01     0.28  -0.02   0.18     0.15  -0.04  -0.01
   2   6     0.01  -0.00  -0.11     0.04  -0.14   0.02     0.50   0.13   0.03
   3   6     0.02  -0.00  -0.11    -0.04  -0.25   0.02     0.06   0.06   0.23
   4   6    -0.01   0.06   0.04    -0.14   0.17  -0.02     0.04  -0.08   0.08
   5   6     0.03  -0.01   0.16    -0.18   0.07   0.06    -0.25  -0.05  -0.20
   6   6    -0.11  -0.12  -0.19    -0.14  -0.12  -0.13    -0.12  -0.02   0.04
   7   6     0.23   0.11   0.16     0.28   0.15   0.03    -0.10  -0.01  -0.00
   8   6     0.04   0.05   0.08    -0.16   0.17  -0.17    -0.29  -0.02  -0.09
   9   1    -0.40  -0.15   0.20     0.25   0.12  -0.04    -0.08  -0.11   0.07
  10   1     0.26   0.12   0.22    -0.06  -0.09  -0.04     0.13   0.01   0.07
  11   1    -0.05  -0.04  -0.40     0.10  -0.02   0.28    -0.01   0.04  -0.16
  12   1     0.03  -0.03  -0.03    -0.02  -0.01  -0.03     0.23  -0.03  -0.13
  13   1     0.00   0.03  -0.04     0.02  -0.04   0.01     0.24   0.16   0.07
  14   1    -0.02  -0.03  -0.03    -0.08  -0.17   0.03     0.02   0.07   0.03
  15   1     0.02  -0.01  -0.05     0.09  -0.10  -0.06    -0.05   0.03   0.09
  16   1    -0.04   0.02   0.02    -0.02   0.10  -0.00     0.10  -0.02   0.00
  17   1     0.06   0.06   0.09    -0.05   0.04   0.04    -0.11  -0.10  -0.13
  18   1     0.01  -0.09   0.11    -0.07  -0.01   0.05    -0.11   0.08  -0.09
  19   1     0.06  -0.11  -0.18     0.02  -0.12  -0.11    -0.07  -0.02   0.07
  20   1    -0.19  -0.03  -0.10    -0.14  -0.05  -0.06     0.02   0.02   0.02
  21   1     0.15  -0.01   0.13     0.19  -0.01   0.12    -0.01  -0.01   0.04
  22   1     0.09   0.16   0.02     0.15   0.18  -0.07     0.01   0.02  -0.04
  23   1    -0.03   0.02   0.06    -0.12   0.09   0.01    -0.15   0.10  -0.01
  24   1    -0.00   0.01  -0.03    -0.06   0.04  -0.14    -0.15  -0.09  -0.10
                      7                      8                      9
                        a                      a                      a 
 Frequencies --   317.6336               387.8805               491.3484
 Red. masses --     7.3974                 6.4091                 7.6276
 Frc consts  --     0.0000                 0.0000                 0.0000
 IR Inten    --     0.1297                 1.6194                 3.2221
 Raman Activ --     0.0000                 0.0000                 0.0000
 Depolar     --     0.0000                 0.0000                 0.0000
 Atom AN      X      Y      Z        X      Y      Z        X      Y      Z
   1   6     0.12  -0.17   0.19    -0.20   0.09  -0.30     0.01  -0.00   0.07
   2   6     0.10  -0.20  -0.21     0.00   0.22   0.17    -0.09  -0.08  -0.17
   3   6    -0.00  -0.02  -0.16     0.24  -0.31   0.02     0.37   0.22  -0.29
   4   6    -0.09   0.23   0.03     0.14   0.11   0.16     0.31   0.07   0.08
   5   6    -0.33   0.12  -0.06    -0.14   0.04  -0.02    -0.03  -0.11  -0.02
   6   6    -0.08  -0.03   0.14    -0.05  -0.08   0.02    -0.08  -0.14   0.03
   7   6    -0.09  -0.05  -0.08    -0.02  -0.06   0.01    -0.10  -0.12   0.19
   8   6     0.33   0.16   0.11     0.10   0.10   0.08    -0.20   0.15   0.11
   9   1    -0.09   0.02   0.13     0.01  -0.13  -0.13     0.02   0.10   0.01
  10   1     0.15  -0.06   0.16    -0.13   0.07  -0.16    -0.01  -0.07   0.03
  11   1     0.06  -0.08   0.00    -0.11   0.08  -0.13     0.01  -0.01   0.11
  12   1     0.05  -0.07  -0.08    -0.01   0.06   0.08    -0.09   0.02   0.16
  13   1     0.03  -0.01  -0.07    -0.03   0.04   0.02    -0.18  -0.13  -0.17
  14   1    -0.08  -0.05  -0.07    -0.03  -0.36   0.15     0.10   0.12  -0.13
  15   1     0.08  -0.01  -0.04     0.24  -0.18  -0.26     0.07   0.08  -0.02
  16   1    -0.04   0.04   0.01     0.07   0.03   0.04     0.06  -0.00   0.02
  17   1    -0.17  -0.06  -0.06    -0.09  -0.07  -0.07    -0.05  -0.10  -0.06
  18   1    -0.13   0.14  -0.06    -0.11   0.11  -0.02    -0.09   0.06   0.00
  19   1    -0.08   0.00   0.12    -0.02  -0.04   0.01     0.00  -0.07  -0.02
  20   1     0.06  -0.03   0.07    -0.02  -0.03   0.01    -0.06   0.01  -0.02
  21   1    -0.05  -0.02  -0.14    -0.01  -0.03  -0.05    -0.04  -0.04  -0.01
  22   1    -0.09  -0.09   0.05    -0.04  -0.04   0.03    -0.05  -0.07   0.08
  23   1     0.22  -0.08  -0.03     0.04   0.05   0.00    -0.19   0.24   0.06
  24   1     0.19   0.16   0.15     0.02   0.02   0.01    -0.18  -0.10  -0.10
                     10                     11                     12
                        a                      a                      a 
 Frequencies --   566.1496               639.3611               770.2507
 Red. masses --     7.3922                 8.3744                 6.3437
 Frc consts  --     0.0000                 0.0000                 0.0000
 IR Inten    --     4.4144                 0.4530                 3.0262
 Raman Activ --     0.0000                 0.0000                 0.0000
 Depolar     --     0.0000                 0.0000                 0.0000
 Atom AN      X      Y      Z        X      Y      Z        X      Y      Z
   1   6    -0.02   0.00  -0.01    -0.03   0.03  -0.01     0.09  -0.08   0.05
   2   6    -0.00   0.01   0.02    -0.06  -0.04  -0.15     0.28   0.14   0.14
   3   6     0.20   0.03  -0.08     0.01  -0.01  -0.04     0.19   0.16  -0.15
   4   6     0.14  -0.10  -0.10     0.10  -0.16   0.53    -0.24   0.06  -0.20
   5   6    -0.08  -0.33   0.08    -0.05   0.27   0.17    -0.10   0.18   0.05
   6   6    -0.40   0.06   0.24     0.03   0.11  -0.05     0.08  -0.01   0.03
   7   6    -0.03   0.31  -0.16     0.06   0.07  -0.24    -0.05  -0.07   0.06
   8   6     0.09  -0.04  -0.14     0.02  -0.34  -0.14    -0.17  -0.26  -0.06
   9   1    -0.00  -0.01  -0.01    -0.02   0.06   0.01    -0.01  -0.18   0.03
  10   1    -0.02  -0.00  -0.01     0.01  -0.02   0.02    -0.02  -0.19   0.02
  11   1    -0.01   0.01  -0.00     0.00  -0.00   0.03    -0.17   0.16  -0.01
  12   1    -0.02   0.02   0.08    -0.05   0.01   0.03    -0.08   0.16   0.31
  13   1    -0.05  -0.03  -0.03    -0.08  -0.04  -0.09    -0.10  -0.23  -0.06
  14   1     0.08   0.01  -0.01    -0.03   0.05  -0.07     0.03  -0.01  -0.02
  15   1     0.05   0.01  -0.02    -0.08   0.01   0.02     0.08   0.02  -0.09
  16   1     0.03   0.02  -0.02    -0.01  -0.01   0.16    -0.09   0.01  -0.05
  17   1     0.09   0.01   0.06    -0.05  -0.10  -0.17    -0.09   0.07   0.10
  18   1     0.00  -0.20   0.08    -0.14   0.29   0.00     0.04   0.02  -0.02
  19   1    -0.24   0.10   0.25     0.03   0.07  -0.05     0.07  -0.03  -0.06
  20   1     0.12   0.01   0.14    -0.03  -0.09   0.02    -0.07  -0.03  -0.01
  21   1     0.16  -0.00   0.11     0.04   0.04   0.12    -0.04   0.03   0.15
  22   1     0.07   0.29  -0.12     0.10   0.13  -0.15     0.06  -0.00  -0.05
  23   1     0.09  -0.07  -0.08     0.05  -0.04  -0.11     0.07  -0.26  -0.04
  24   1     0.03  -0.02   0.10    -0.01  -0.11   0.00     0.06   0.06   0.12
                     13                     14                     15
                        a                      a                      a 
 Frequencies --   818.7909               847.4385               878.0078
 Red. masses --     3.9775                 5.5249                 6.2631
 Frc consts  --     0.0000                 0.0000                 0.0000
 IR Inten    --     9.3601                 5.0167                 1.3517
 Raman Activ --     0.0000                 0.0000                 0.0000
 Depolar     --     0.0000                 0.0000                 0.0000
 Atom AN      X      Y      Z        X      Y      Z        X      Y      Z
   1   6     0.07   0.01  -0.03    -0.01  -0.11   0.03     0.00  -0.03   0.07
   2   6     0.16   0.05  -0.10    -0.11  -0.01   0.06    -0.02   0.01   0.12
   3   6    -0.22  -0.02   0.09     0.07   0.30  -0.08     0.14  -0.02  -0.15
   4   6    -0.05  -0.06   0.21    -0.03   0.14   0.09    -0.04  -0.15  -0.13
   5   6    -0.06  -0.01  -0.13    -0.08   0.21  -0.13    -0.27   0.17   0.13
   6   6    -0.04   0.06  -0.15     0.04  -0.04  -0.23    -0.13   0.17   0.13
   7   6     0.15   0.01  -0.06    -0.03  -0.22   0.01     0.22   0.17  -0.02
   8   6     0.19   0.05   0.08    -0.05  -0.25   0.12     0.21  -0.25  -0.07
   9   1    -0.09  -0.03   0.06     0.06   0.06  -0.02     0.08  -0.08  -0.03
  10   1     0.02  -0.28   0.07     0.02   0.13  -0.02    -0.04   0.14  -0.06
  11   1    -0.20   0.21   0.03     0.15  -0.18   0.02     0.06  -0.06  -0.04
  12   1    -0.16   0.19   0.16     0.11  -0.14  -0.03     0.06  -0.06  -0.02
  13   1    -0.07  -0.30  -0.05     0.05   0.14   0.05    -0.00   0.13   0.00
  14   1    -0.14  -0.05   0.00    -0.06  -0.14   0.09     0.10   0.06  -0.04
  15   1    -0.07  -0.03  -0.05     0.19   0.01  -0.19    -0.00   0.02   0.02
  16   1     0.02  -0.08   0.04    -0.04  -0.07   0.01    -0.06  -0.06  -0.03
  17   1     0.15   0.15   0.01     0.10   0.24   0.09    -0.00   0.14   0.08
  18   1     0.02  -0.19   0.07     0.00  -0.17   0.11    -0.01  -0.06   0.06
  19   1    -0.13   0.03   0.15    -0.17   0.06   0.20     0.03  -0.09  -0.03
  20   1     0.20   0.04   0.02     0.31  -0.01   0.03    -0.16  -0.02   0.02
  21   1     0.01  -0.00  -0.15     0.03  -0.05   0.17    -0.15   0.14  -0.28
  22   1    -0.09  -0.05   0.10     0.03   0.10  -0.04    -0.10  -0.25   0.16
  23   1    -0.12   0.19   0.10    -0.05   0.02   0.03    -0.16   0.06   0.13
  24   1    -0.04  -0.09  -0.22    -0.04  -0.10  -0.04    -0.05  -0.20  -0.22
                     16                     17                     18
                        a                      a                      a 
 Frequencies --   889.3776               924.2994               955.7951
 Red. masses --     6.2492                 5.7715                 5.6305
 Frc consts  --     0.0000                 0.0000                 0.0000
 IR Inten    --     1.8742                 3.4241                 0.4551
 Raman Activ --     0.0000                 0.0000                 0.0000
 Depolar     --     0.0000                 0.0000                 0.0000
 Atom AN      X      Y      Z        X      Y      Z        X      Y      Z
   1   6    -0.09   0.21  -0.00    -0.14   0.17  -0.20    -0.02   0.08  -0.16
   2   6     0.05  -0.09  -0.04    -0.02  -0.14  -0.24    -0.03  -0.08  -0.07
   3   6     0.21  -0.42   0.01     0.13   0.01   0.32     0.00   0.02   0.17
   4   6     0.00   0.01  -0.04     0.10   0.08   0.03     0.07   0.00  -0.34
   5   6    -0.09   0.32  -0.04    -0.20  -0.01  -0.08     0.11   0.29   0.12
   6   6    -0.03  -0.10  -0.11     0.06   0.07   0.08    -0.19  -0.06   0.11
   7   6     0.01  -0.17   0.03     0.04   0.05   0.12    -0.08  -0.12  -0.03
   8   6    -0.09   0.07   0.09    -0.07  -0.16  -0.16     0.14  -0.13   0.09
   9   1     0.01  -0.04  -0.03    -0.15   0.35   0.02    -0.12   0.22   0.04
  10   1    -0.07   0.11  -0.05     0.09  -0.11   0.10     0.08  -0.17   0.09
  11   1    -0.05   0.08  -0.05     0.02  -0.00   0.10    -0.04   0.06   0.08
  12   1    -0.02   0.02  -0.03     0.01  -0.06  -0.01    -0.01  -0.01  -0.07
  13   1    -0.06   0.04  -0.10     0.03  -0.11  -0.02     0.10  -0.11   0.10
  14   1     0.18   0.26  -0.19     0.00  -0.07   0.11     0.10  -0.04   0.15
  15   1    -0.16   0.01   0.36     0.12  -0.02   0.05     0.08  -0.02  -0.00
  16   1     0.05   0.00  -0.02     0.18   0.07  -0.02     0.05  -0.06  -0.11
  17   1     0.05   0.21   0.08     0.03   0.15   0.11    -0.10  -0.02   0.02
  18   1    -0.03  -0.07   0.11     0.00  -0.20   0.08     0.09   0.20  -0.11
  19   1    -0.12   0.00   0.14     0.07  -0.20  -0.01    -0.03   0.20  -0.06
  20   1     0.17  -0.06   0.04    -0.09   0.15  -0.05    -0.08  -0.24   0.10
  21   1     0.07  -0.08   0.05    -0.17   0.14   0.05     0.16  -0.16   0.01
  22   1     0.01   0.04  -0.00     0.08  -0.20  -0.02    -0.10   0.19   0.06
  23   1     0.02  -0.07   0.03     0.08  -0.12  -0.10    -0.11   0.06   0.12
  24   1     0.05   0.12   0.03     0.03   0.01   0.09    -0.06  -0.16  -0.10
                     19                     20                     21
                        a                      a                      a 
 Frequencies --   979.4494               993.6477              1037.5111
 Red. masses --     7.8196                 6.3870                 5.1838
 Frc consts  --     0.0000                 0.0000                 0.0000
 IR Inten    --     0.4871                 3.9162                 1.6344
 Raman Activ --     0.0000                 0.0000                 0.0000
 Depolar     --     0.0000                 0.0000                 0.0000
 Atom AN      X      Y      Z        X      Y      Z        X      Y      Z
   1   6    -0.01   0.02  -0.04    -0.02   0.14   0.01     0.18  -0.02   0.14
   2   6    -0.00  -0.01  -0.01     0.04  -0.12  -0.01    -0.16  -0.01  -0.06
   3   6     0.03  -0.00   0.02     0.03  -0.08   0.04    -0.22  -0.04  -0.03
   4   6     0.02  -0.04  -0.07    -0.06   0.26  -0.09     0.31   0.15  -0.09
   5   6    -0.14  -0.06   0.12    -0.02  -0.27   0.17    -0.09   0.12  -0.06
   6   6     0.34  -0.26  -0.17     0.16   0.04  -0.24     0.06  -0.07   0.13
   7   6    -0.01   0.41  -0.30    -0.13   0.08   0.19    -0.18  -0.02   0.05
   8   6    -0.15   0.07   0.29     0.19  -0.25  -0.14     0.18  -0.08  -0.03
   9   1    -0.03   0.05   0.01     0.00  -0.03  -0.00     0.06  -0.31   0.01
  10   1     0.02  -0.03   0.02    -0.03   0.04  -0.02    -0.08  -0.04  -0.06
  11   1    -0.00   0.00   0.02    -0.06   0.09  -0.03    -0.14   0.17  -0.10
  12   1     0.00  -0.00  -0.00    -0.01  -0.01  -0.04    -0.12   0.11  -0.21
  13   1     0.02  -0.02   0.02     0.00  -0.00  -0.02     0.03   0.04   0.04
  14   1     0.04  -0.00   0.03    -0.04   0.03  -0.07    -0.07   0.00  -0.03
  15   1     0.00  -0.00   0.00     0.10   0.01   0.14    -0.01  -0.00   0.04
  16   1     0.00  -0.08  -0.03    -0.08   0.25   0.03     0.13  -0.01  -0.05
  17   1    -0.16  -0.02   0.15    -0.18  -0.20   0.04    -0.04   0.12   0.12
  18   1    -0.03  -0.04   0.04    -0.12   0.08   0.03     0.01  -0.08   0.04
  19   1     0.04  -0.05   0.02    -0.05   0.15   0.04     0.07  -0.13  -0.02
  20   1     0.17  -0.30   0.06     0.21   0.08  -0.04    -0.09   0.02  -0.01
  21   1    -0.11   0.18  -0.12    -0.15   0.13   0.17    -0.07   0.05   0.22
  22   1    -0.05   0.04  -0.03    -0.16   0.14   0.16     0.10   0.02  -0.13
  23   1    -0.05   0.01   0.09    -0.09  -0.01   0.07     0.10   0.22  -0.17
  24   1    -0.15  -0.13   0.27     0.04  -0.07  -0.24    -0.14  -0.28   0.13
                     22                     23                     24
                        a                      a                      a 
 Frequencies --  1056.1248              1077.9592              1093.1025
 Red. masses --     5.2516                 5.8819                 5.3541
 Frc consts  --     0.0000                 0.0000                 0.0000
 IR Inten    --     0.1569                 1.4292                 0.4907
 Raman Activ --     0.0000                 0.0000                 0.0000
 Depolar     --     0.0000                 0.0000                 0.0000
 Atom AN      X      Y      Z        X      Y      Z        X      Y      Z
   1   6    -0.17   0.22   0.10     0.01   0.22   0.07    -0.03  -0.16   0.11
   2   6     0.24  -0.22  -0.05     0.02  -0.25  -0.00     0.07   0.17  -0.22
   3   6     0.04   0.03   0.07    -0.05   0.10   0.01    -0.09   0.01   0.21
   4   6    -0.19   0.06   0.10     0.01   0.23  -0.04     0.07   0.03  -0.02
   5   6    -0.04  -0.12  -0.15     0.27   0.03  -0.07     0.18   0.12  -0.11
   6   6     0.06   0.08   0.14    -0.21  -0.09   0.03    -0.08  -0.26   0.08
   7   6    -0.06  -0.05  -0.17     0.20   0.08  -0.06    -0.06   0.18   0.14
   8   6     0.10  -0.02   0.13    -0.19  -0.19   0.08    -0.01  -0.06  -0.15
   9   1     0.06  -0.00  -0.04     0.01  -0.12   0.00     0.09  -0.07  -0.03
  10   1    -0.10   0.26  -0.08    -0.08   0.05  -0.05    -0.03   0.14  -0.05
  11   1     0.03  -0.01  -0.05    -0.12   0.17  -0.07     0.10  -0.15  -0.03
  12   1     0.07  -0.09   0.18    -0.01  -0.04  -0.09    -0.02   0.05   0.12
  13   1    -0.10  -0.03  -0.16     0.05  -0.03   0.03    -0.19   0.06  -0.25
  14   1    -0.27  -0.04  -0.15    -0.16  -0.05  -0.04    -0.17  -0.05  -0.01
  15   1     0.15   0.01   0.09     0.22   0.02   0.08    -0.04  -0.02  -0.04
  16   1     0.04  -0.13  -0.02    -0.10   0.14   0.03     0.24   0.07  -0.05
  17   1    -0.09   0.04   0.14     0.21  -0.06  -0.25     0.11   0.05  -0.06
  18   1     0.24  -0.11  -0.20    -0.09   0.10   0.05     0.07   0.02  -0.04
  19   1     0.12   0.12  -0.16    -0.09  -0.14   0.09    -0.03  -0.05   0.04
  20   1    -0.15  -0.03   0.00     0.01  -0.01   0.02    -0.01  -0.36   0.13
  21   1     0.10  -0.08   0.02     0.05  -0.03  -0.23    -0.15   0.14   0.05
  22   1     0.04   0.10  -0.10     0.00  -0.16   0.04    -0.14   0.05   0.16
  23   1    -0.02   0.14   0.00    -0.03  -0.18   0.06    -0.02  -0.11   0.03
  24   1    -0.06  -0.12  -0.02    -0.09  -0.12   0.22     0.09   0.11  -0.10
                     25                     26                     27
                        a                      a                      a 
 Frequencies --  1107.8056              1126.4357              1153.6564
 Red. masses --     5.3095                 5.0800                 8.3000
 Frc consts  --     0.0000                 0.0000                 0.0000
 IR Inten    --     0.8359                 1.4763                 3.3159
 Raman Activ --     0.0000                 0.0000                 0.0000
 Depolar     --     0.0000                 0.0000                 0.0000
 Atom AN      X      Y      Z        X      Y      Z        X      Y      Z
   1   6     0.06  -0.20   0.08    -0.19  -0.07  -0.09     0.09  -0.22  -0.13
   2   6    -0.06   0.21  -0.26     0.29   0.14   0.18    -0.16   0.30   0.03
   3   6    -0.01  -0.02   0.25    -0.21  -0.16  -0.09     0.16  -0.19   0.04
   4   6     0.09   0.07  -0.11     0.05   0.09  -0.17    -0.21   0.37   0.10
   5   6    -0.08  -0.06   0.14     0.11   0.11   0.05     0.10  -0.15  -0.23
   6   6     0.01   0.19  -0.09    -0.03  -0.10  -0.01    -0.05   0.02   0.13
   7   6     0.14  -0.10  -0.06    -0.07   0.02   0.07     0.02  -0.01  -0.19
   8   6    -0.12  -0.10   0.09     0.14  -0.03  -0.04     0.05  -0.17   0.22
   9   1     0.07  -0.11  -0.01    -0.03   0.25  -0.02    -0.05   0.08   0.02
  10   1    -0.01   0.02  -0.03     0.06   0.08   0.05     0.10  -0.18   0.07
  11   1     0.05  -0.09  -0.03     0.17  -0.21   0.09     0.04  -0.06   0.07
  12   1    -0.06   0.09   0.01     0.08  -0.01   0.27    -0.05   0.09  -0.05
  13   1    -0.17   0.11  -0.22    -0.05  -0.09  -0.03    -0.06   0.16  -0.02
  14   1    -0.04  -0.02   0.05    -0.10   0.03  -0.12     0.09   0.11  -0.07
  15   1    -0.02  -0.02   0.02    -0.16  -0.02   0.02     0.04   0.01   0.21
  16   1     0.18   0.10  -0.05    -0.09   0.12  -0.00    -0.15   0.14   0.06
  17   1    -0.18  -0.04   0.15     0.02  -0.02  -0.05     0.10   0.01  -0.07
  18   1    -0.06   0.03   0.04    -0.12   0.08   0.10     0.07  -0.07  -0.08
  19   1    -0.01   0.16  -0.04    -0.05  -0.17   0.09     0.05  -0.01  -0.06
  20   1     0.05   0.28  -0.09     0.05   0.19  -0.06    -0.11  -0.10   0.04
  21   1     0.24  -0.22  -0.24     0.03  -0.03   0.00    -0.06   0.07   0.07
  22   1    -0.01  -0.02   0.03     0.05  -0.04  -0.05     0.07  -0.02  -0.11
  23   1    -0.05  -0.13   0.09     0.04   0.16  -0.09    -0.06   0.07   0.07
  24   1    -0.08  -0.10   0.19    -0.17  -0.29   0.19    -0.03  -0.09  -0.05
                     28                     29                     30
                        a                      a                      a 
 Frequencies --  1166.4335              1191.6771              1210.5140
 Red. masses --     5.6989                 6.5763                 4.0467
 Frc consts  --     0.0000                 0.0000                 0.0000
 IR Inten    --     0.2105                 1.8560                 1.3346
 Raman Activ --     0.0000                 0.0000                 0.0000
 Depolar     --     0.0000                 0.0000                 0.0000
 Atom AN      X      Y      Z        X      Y      Z        X      Y      Z
   1   6     0.04  -0.01  -0.05     0.05  -0.00   0.06    -0.02   0.00   0.01
   2   6    -0.09   0.02   0.12    -0.04  -0.02  -0.25     0.01   0.00   0.02
   3   6     0.06  -0.02  -0.15     0.20   0.07   0.26    -0.04  -0.02  -0.04
   4   6    -0.00   0.04   0.29    -0.35  -0.19  -0.02     0.08   0.12   0.04
   5   6     0.06   0.10  -0.23     0.13   0.11   0.03     0.27   0.07   0.04
   6   6     0.08  -0.25   0.10     0.05  -0.20   0.02    -0.26  -0.14  -0.02
   7   6    -0.11   0.21   0.11    -0.19   0.12  -0.00     0.06   0.07  -0.17
   8   6    -0.03  -0.11  -0.24     0.16   0.09  -0.06    -0.05  -0.12   0.17
   9   1    -0.04   0.03   0.02     0.04  -0.09  -0.01     0.00   0.00  -0.00
  10   1     0.03  -0.07   0.03    -0.04   0.02  -0.03    -0.00   0.01   0.00
  11   1    -0.02   0.03   0.03    -0.02   0.03  -0.05     0.01  -0.01   0.00
  12   1     0.01  -0.01  -0.05    -0.01  -0.01  -0.01    -0.01   0.01  -0.01
  13   1     0.07   0.01   0.12    -0.10   0.07  -0.16     0.03  -0.04   0.04
  14   1    -0.00   0.04  -0.08     0.21  -0.03   0.22    -0.03   0.02  -0.04
  15   1    -0.07   0.01  -0.01     0.13  -0.00   0.03    -0.04  -0.00  -0.02
  16   1     0.01   0.12   0.09    -0.29  -0.11   0.04     0.15  -0.26  -0.08
  17   1    -0.18   0.09   0.22     0.04  -0.01  -0.06    -0.35  -0.09   0.27
  18   1     0.20  -0.07  -0.14    -0.03   0.09   0.02     0.11   0.12  -0.10
  19   1     0.04  -0.04  -0.01    -0.01  -0.27   0.10    -0.13  -0.18   0.13
  20   1     0.01   0.16  -0.06     0.05   0.26  -0.09     0.04   0.30  -0.09
  21   1     0.22  -0.20  -0.27     0.05  -0.04  -0.02    -0.15   0.16   0.05
  22   1    -0.24   0.17   0.22     0.01   0.05  -0.06     0.12  -0.11  -0.15
  23   1    -0.00  -0.11  -0.03     0.03   0.15  -0.06    -0.04  -0.02   0.06
  24   1    -0.02  -0.05   0.07    -0.05  -0.09  -0.04     0.13   0.18  -0.23
                     31                     32                     33
                        a                      a                      a 
 Frequencies --  1227.0389              1242.9583              1279.0152
 Red. masses --     4.5257                 3.0626                 2.5596
 Frc consts  --     0.0000                 0.0000                 0.0000
 IR Inten    --     1.3474                 0.4298                 0.6648
 Raman Activ --     0.0000                 0.0000                 0.0000
 Depolar     --     0.0000                 0.0000                 0.0000
 Atom AN      X      Y      Z        X      Y      Z        X      Y      Z
   1   6    -0.03   0.01   0.01     0.17  -0.02  -0.19     0.17   0.14  -0.07
   2   6     0.05  -0.03   0.02    -0.13   0.05   0.21    -0.06  -0.18   0.08
   3   6    -0.09   0.01  -0.03     0.03   0.01   0.00    -0.04   0.04   0.01
   4   6     0.14   0.06  -0.07    -0.02  -0.12  -0.07    -0.02  -0.06  -0.02
   5   6    -0.04   0.01  -0.05    -0.00   0.03   0.13     0.07   0.01  -0.10
   6   6     0.25  -0.02   0.24     0.04  -0.02  -0.02    -0.05   0.02   0.01
   7   6    -0.25   0.04  -0.25    -0.04   0.03   0.06    -0.01  -0.03  -0.06
   8   6     0.00  -0.10   0.14    -0.01   0.06  -0.10     0.06   0.01   0.10
   9   1     0.01   0.01  -0.01    -0.11   0.07   0.05    -0.06  -0.03   0.04
  10   1    -0.00   0.04  -0.00     0.09  -0.23   0.06     0.01  -0.14   0.00
  11   1     0.01  -0.01   0.00    -0.08   0.12   0.07    -0.12   0.19   0.01
  12   1    -0.00   0.01   0.01     0.09  -0.11   0.05     0.24  -0.34   0.21
  13   1     0.02  -0.04   0.02    -0.16   0.36  -0.15    -0.19   0.28  -0.21
  14   1    -0.03  -0.01  -0.00    -0.41  -0.03  -0.27     0.07  -0.04   0.10
  15   1    -0.04  -0.01  -0.04     0.27   0.03   0.21    -0.34  -0.02  -0.25
  16   1     0.07  -0.01  -0.03     0.10  -0.32  -0.10     0.08   0.39   0.06
  17   1     0.15   0.04  -0.12     0.05  -0.00  -0.04    -0.08   0.03   0.11
  18   1    -0.31  -0.07   0.30    -0.08   0.05   0.07    -0.02   0.00   0.00
  19   1     0.15  -0.20  -0.04    -0.00  -0.02   0.02    -0.01  -0.03   0.01
  20   1    -0.12   0.17  -0.06     0.03   0.03  -0.01    -0.02  -0.03   0.01
  21   1     0.13  -0.11  -0.01     0.03  -0.03  -0.03    -0.03   0.03   0.06
  22   1    -0.09   0.23  -0.05    -0.02   0.02   0.02     0.07  -0.04  -0.08
  23   1    -0.16  -0.16   0.26     0.02  -0.00  -0.04    -0.04   0.00   0.08
  24   1     0.13   0.16  -0.26     0.01   0.03  -0.01    -0.01  -0.03  -0.00
                     34                     35                     36
                        a                      a                      a 
 Frequencies --  1294.5949              1298.5699              1305.9503
 Red. masses --     3.5568                 3.6543                 4.6444
 Frc consts  --     0.0000                 0.0000                 0.0000
 IR Inten    --     0.3984                 0.0492                 7.8463
 Raman Activ --     0.0000                 0.0000                 0.0000
 Depolar     --     0.0000                 0.0000                 0.0000
 Atom AN      X      Y      Z        X      Y      Z        X      Y      Z
   1   6    -0.01   0.00  -0.01     0.03   0.04  -0.00     0.02   0.03   0.02
   2   6     0.06  -0.01  -0.00     0.03  -0.06  -0.01    -0.03  -0.02  -0.01
   3   6    -0.09  -0.01   0.04    -0.07  -0.05  -0.02     0.03  -0.04  -0.07
   4   6     0.13  -0.02  -0.01    -0.07   0.29   0.06    -0.23   0.22   0.00
   5   6     0.19  -0.03  -0.28     0.04  -0.04  -0.06    -0.04  -0.08   0.16
   6   6    -0.01   0.16  -0.00    -0.02  -0.17   0.15     0.07   0.07  -0.10
   7   6    -0.04   0.11   0.16     0.22  -0.05  -0.06    -0.14   0.20   0.18
   8   6    -0.08  -0.11   0.03    -0.07  -0.03  -0.10    -0.04  -0.24   0.12
   9   1     0.00   0.01  -0.01     0.00  -0.01   0.00     0.01  -0.02   0.00
  10   1     0.01  -0.00   0.00    -0.00  -0.01  -0.00    -0.01  -0.01  -0.00
  11   1     0.01  -0.01   0.00    -0.03   0.04  -0.01    -0.01   0.02  -0.01
  12   1    -0.01   0.02   0.01     0.08  -0.11   0.09     0.06  -0.08   0.05
  13   1    -0.05   0.03  -0.07    -0.06   0.05  -0.08     0.03  -0.03   0.04
  14   1     0.05  -0.02   0.07     0.22   0.02   0.15     0.13   0.04   0.03
  15   1     0.09  -0.00   0.06    -0.16  -0.01  -0.08    -0.14  -0.01  -0.10
  16   1    -0.33  -0.10   0.07     0.02  -0.44  -0.10     0.40  -0.12  -0.16
  17   1    -0.29  -0.00   0.27     0.06   0.00  -0.05     0.14  -0.07  -0.17
  18   1    -0.32  -0.06   0.28    -0.18  -0.02   0.15     0.04   0.01  -0.03
  19   1     0.00   0.06  -0.02     0.04   0.35  -0.12     0.01  -0.10   0.02
  20   1    -0.05  -0.29   0.10    -0.04   0.17  -0.05     0.07  -0.12   0.04
  21   1     0.13  -0.11  -0.15    -0.13   0.14   0.05     0.21  -0.18  -0.22
  22   1     0.08  -0.12  -0.04    -0.19   0.13   0.21     0.11  -0.11  -0.08
  23   1     0.12   0.11  -0.20     0.08   0.04  -0.14     0.15   0.20  -0.25
  24   1     0.07   0.10  -0.13    -0.05  -0.06   0.12     0.06   0.04  -0.15
                     37                     38                     39
                        a                      a                      a 
 Frequencies --  1322.2112              1326.6370              1337.8725
 Red. masses --     3.9471                 4.6621                 5.2075
 Frc consts  --     0.0000                 0.0000                 0.0000
 IR Inten    --     2.0174                10.8321                 1.3612
 Raman Activ --     0.0000                 0.0000                 0.0000
 Depolar     --     0.0000                 0.0000                 0.0000
 Atom AN      X      Y      Z        X      Y      Z        X      Y      Z
   1   6    -0.01   0.01   0.00     0.01   0.02   0.02    -0.04  -0.04   0.00
   2   6     0.01  -0.01   0.01    -0.04   0.02  -0.04    -0.03  -0.06   0.05
   3   6     0.01   0.02   0.00     0.06  -0.03   0.00     0.33   0.09   0.04
   4   6     0.01  -0.06  -0.00    -0.09   0.20   0.15    -0.38  -0.17  -0.01
   5   6    -0.07   0.07  -0.04     0.10  -0.06  -0.04     0.21   0.04  -0.13
   6   6    -0.02  -0.38   0.05    -0.00   0.17  -0.08    -0.03   0.01   0.05
   7   6    -0.13   0.22   0.15    -0.16  -0.01   0.11     0.07  -0.06  -0.04
   8   6     0.10   0.00  -0.00     0.20   0.17  -0.30     0.07   0.06   0.02
   9   1    -0.00  -0.00  -0.00     0.01  -0.03   0.00    -0.01   0.04   0.00
  10   1    -0.01  -0.01   0.00    -0.02  -0.02  -0.00    -0.01   0.05  -0.01
  11   1     0.01  -0.02  -0.00     0.01  -0.00  -0.01     0.00  -0.02   0.01
  12   1    -0.03   0.04  -0.03     0.04  -0.06   0.03    -0.15   0.17  -0.21
  13   1     0.01  -0.01   0.01     0.03  -0.05   0.04     0.10  -0.06   0.12
  14   1    -0.03  -0.01  -0.02     0.05   0.00   0.02    -0.22  -0.03  -0.17
  15   1     0.02   0.00   0.00    -0.14  -0.00  -0.03    -0.16   0.01  -0.13
  16   1    -0.01   0.07   0.02     0.04  -0.34  -0.06     0.33   0.15  -0.07
  17   1     0.09   0.07  -0.06    -0.09  -0.07   0.04    -0.13  -0.06   0.07
  18   1    -0.05  -0.01   0.04    -0.06  -0.03   0.06    -0.29  -0.01   0.27
  19   1     0.02   0.56  -0.18    -0.02  -0.12   0.05    -0.00   0.07  -0.01
  20   1     0.07   0.15  -0.06    -0.01  -0.20   0.07    -0.05  -0.01   0.01
  21   1     0.01   0.00  -0.08     0.06  -0.07   0.05    -0.06   0.05   0.05
  22   1     0.32  -0.29  -0.28     0.14  -0.14  -0.13    -0.03   0.03   0.04
  23   1    -0.08  -0.08   0.14    -0.22  -0.33   0.36     0.03   0.11  -0.05
  24   1     0.03   0.01  -0.08    -0.12  -0.20   0.14    -0.05  -0.08   0.08
                     40                     41                     42
                        a                      a                      a 
 Frequencies --  1351.1411              1375.0307              1413.4075
 Red. masses --     3.9205                 4.4164                 3.1667
 Frc consts  --     0.0000                 0.0000                 0.0000
 IR Inten    --     7.7533                 6.3659                 1.5105
 Raman Activ --     0.0000                 0.0000                 0.0000
 Depolar     --     0.0000                 0.0000                 0.0000
 Atom AN      X      Y      Z        X      Y      Z        X      Y      Z
   1   6     0.04   0.08   0.08    -0.05  -0.02  -0.06     0.18  -0.38   0.07
   2   6    -0.20   0.28  -0.25     0.19  -0.11   0.14    -0.04   0.06  -0.07
   3   6    -0.08  -0.07  -0.11    -0.31   0.04  -0.27    -0.03  -0.03  -0.02
   4   6    -0.10  -0.14   0.03    -0.15  -0.10   0.15    -0.00  -0.01   0.01
   5   6     0.07   0.04  -0.06     0.06  -0.00  -0.04     0.01   0.01  -0.01
   6   6    -0.01  -0.02   0.03    -0.01   0.02  -0.00    -0.01  -0.00  -0.00
   7   6     0.03  -0.02  -0.03    -0.00  -0.02  -0.01     0.00   0.00   0.00
   8   6     0.02   0.03   0.01     0.05   0.05  -0.04    -0.00   0.03   0.02
   9   1     0.06  -0.18  -0.01    -0.01   0.07  -0.01    -0.12   0.47   0.10
  10   1    -0.03  -0.10   0.01     0.05   0.02   0.03    -0.12   0.44  -0.23
  11   1     0.06  -0.04  -0.04     0.00  -0.01   0.04    -0.36   0.33  -0.08
  12   1     0.28  -0.33   0.34    -0.13   0.17  -0.08     0.03  -0.05   0.13
  13   1     0.20  -0.23   0.23    -0.13   0.16  -0.16     0.08  -0.01   0.07
  14   1     0.03   0.00  -0.01     0.37   0.04   0.23     0.03   0.03  -0.01
  15   1     0.27   0.02   0.25     0.40   0.02   0.17     0.05  -0.00   0.02
  16   1     0.18   0.13  -0.01     0.37   0.12  -0.04     0.01   0.01   0.00
  17   1    -0.08  -0.03   0.02    -0.04  -0.01   0.05    -0.02  -0.01  -0.00
  18   1    -0.11  -0.03   0.12    -0.04  -0.00   0.04    -0.01  -0.02   0.02
  19   1    -0.00   0.06  -0.01    -0.01  -0.02   0.01     0.00   0.01  -0.01
  20   1    -0.02   0.02  -0.01    -0.01  -0.01   0.01     0.01  -0.00   0.00
  21   1    -0.03   0.03   0.03    -0.01   0.01   0.03    -0.00   0.00   0.00
  22   1    -0.02   0.01   0.02     0.01  -0.01  -0.01     0.02  -0.02  -0.01
  23   1    -0.01   0.05  -0.00    -0.06  -0.02   0.08     0.04  -0.06  -0.01
  24   1     0.00   0.00   0.03    -0.02  -0.03   0.07    -0.03  -0.03  -0.03
                     43                     44                     45
                        a                      a                      a 
 Frequencies --  1477.8991              1484.4515              1487.2450
 Red. masses --     1.8976                 1.9429                 1.8788
 Frc consts  --     0.0000                 0.0000                 0.0000
 IR Inten    --     0.8651                 1.6155                 0.5644
 Raman Activ --     0.0000                 0.0000                 0.0000
 Depolar     --     0.0000                 0.0000                 0.0000
 Atom AN      X      Y      Z        X      Y      Z        X      Y      Z
   1   6     0.03  -0.02  -0.01     0.06   0.02  -0.02     0.00   0.04   0.07
   2   6    -0.00   0.13   0.11    -0.00  -0.04  -0.03    -0.01   0.03   0.05
   3   6    -0.03  -0.02   0.07    -0.06  -0.05   0.13    -0.09  -0.06   0.15
   4   6    -0.02  -0.02   0.00     0.00   0.01  -0.00    -0.02  -0.02   0.02
   5   6    -0.00  -0.05  -0.01     0.01   0.06   0.01     0.01  -0.06  -0.03
   6   6    -0.06   0.00   0.01     0.15  -0.02  -0.05    -0.04   0.01   0.02
   7   6    -0.02   0.11  -0.13    -0.00  -0.02   0.03     0.02  -0.07   0.07
   8   6     0.01  -0.06  -0.05     0.02  -0.11  -0.09    -0.01   0.11   0.06
   9   1    -0.08  -0.02   0.05    -0.17  -0.05   0.10     0.03   0.10  -0.01
  10   1    -0.02   0.08  -0.04    -0.11   0.01  -0.10    -0.10  -0.17  -0.03
  11   1    -0.02   0.03   0.08     0.05  -0.04   0.08     0.06  -0.06  -0.22
  12   1     0.20  -0.17  -0.33    -0.04   0.03   0.09     0.05  -0.05  -0.07
  13   1    -0.22  -0.33  -0.12     0.05   0.08   0.03    -0.05  -0.07  -0.02
  14   1     0.04   0.16  -0.10     0.08   0.29  -0.17     0.10   0.40  -0.24
  15   1     0.12  -0.05  -0.15     0.17  -0.10  -0.28     0.26  -0.13  -0.37
  16   1    -0.00  -0.01   0.00    -0.03  -0.02   0.00     0.02   0.01   0.00
  17   1     0.04   0.08   0.07    -0.06  -0.12  -0.09     0.05   0.11   0.10
  18   1    -0.05   0.09  -0.02     0.07  -0.14   0.04    -0.08   0.13  -0.03
  19   1     0.08  -0.03  -0.12    -0.21   0.12   0.29     0.06  -0.04  -0.08
  20   1     0.15   0.01   0.04    -0.37  -0.02  -0.10     0.10  -0.00   0.03
  21   1     0.22  -0.09   0.33    -0.03   0.01  -0.07    -0.13   0.05  -0.17
  22   1    -0.15  -0.33   0.15     0.04   0.05  -0.04     0.07   0.19  -0.08
  23   1    -0.12   0.16   0.04    -0.21   0.25   0.09     0.17  -0.23  -0.06
  24   1     0.09   0.11   0.14     0.15   0.17   0.25    -0.14  -0.17  -0.20
                     46                     47                     48
                        a                      a                      a 
 Frequencies --  1491.5682              1495.6870              1505.1333
 Red. masses --     1.9303                 1.9437                 1.6231
 Frc consts  --     0.0000                 0.0000                 0.0000
 IR Inten    --     0.4954                 0.4165                 1.2286
 Raman Activ --     0.0000                 0.0000                 0.0000
 Depolar     --     0.0000                 0.0000                 0.0000
 Atom AN      X      Y      Z        X      Y      Z        X      Y      Z
   1   6     0.03   0.03  -0.02    -0.03   0.02   0.04     0.15   0.08   0.10
   2   6    -0.00  -0.12  -0.13    -0.00  -0.08  -0.03     0.05   0.02   0.06
   3   6    -0.01  -0.03   0.03    -0.03  -0.02   0.05     0.02   0.03  -0.09
   4   6     0.00   0.00  -0.01     0.02  -0.00  -0.00     0.00   0.00  -0.00
   5   6    -0.00  -0.07  -0.02     0.01   0.18   0.03    -0.00   0.01   0.00
   6   6    -0.17   0.04   0.06    -0.03  -0.01   0.01     0.01  -0.00   0.00
   7   6    -0.01  -0.01  -0.00    -0.01   0.11  -0.14    -0.00   0.01  -0.01
   8   6     0.02  -0.08  -0.07    -0.03   0.07   0.06    -0.00  -0.01   0.01
   9   1    -0.13  -0.06   0.07     0.10   0.08  -0.06    -0.35   0.16   0.22
  10   1    -0.09  -0.00  -0.07    -0.01  -0.14   0.03    -0.50  -0.28  -0.35
  11   1     0.06  -0.05   0.06     0.03  -0.04  -0.18     0.23  -0.22  -0.29
  12   1    -0.19   0.15   0.33    -0.10   0.08   0.16     0.01   0.02  -0.08
  13   1     0.24   0.29   0.15     0.09   0.20   0.04    -0.06  -0.05  -0.04
  14   1     0.02   0.09  -0.06     0.02   0.12  -0.08    -0.03  -0.18   0.12
  15   1     0.03  -0.03  -0.09     0.07  -0.04  -0.12    -0.09   0.06   0.18
  16   1    -0.01  -0.02  -0.00    -0.03   0.02   0.01     0.01   0.00  -0.00
  17   1     0.07   0.13   0.10    -0.18  -0.29  -0.23    -0.00  -0.01  -0.01
  18   1    -0.09   0.16  -0.04     0.15  -0.36   0.13     0.01  -0.01  -0.00
  19   1     0.22  -0.14  -0.31     0.04   0.01  -0.06    -0.00  -0.00   0.01
  20   1     0.39   0.01   0.12     0.06   0.03   0.01    -0.01   0.00  -0.00
  21   1     0.01  -0.01   0.02     0.20  -0.07   0.31     0.01  -0.00   0.02
  22   1    -0.02  -0.02   0.02    -0.16  -0.30   0.16    -0.02  -0.01   0.02
  23   1    -0.15   0.18   0.06     0.12  -0.13  -0.06     0.00   0.00  -0.01
  24   1     0.10   0.12   0.17    -0.08  -0.09  -0.14     0.00   0.01  -0.01
                     49                     50                     51
                        a                      a                      a 
 Frequencies --  1507.7605              1516.2424              2918.5344
 Red. masses --     1.8859                 1.7697                 1.7612
 Frc consts  --     0.0000                 0.0000                 0.0000
 IR Inten    --     0.9500                 0.2850                71.0684
 Raman Activ --     0.0000                 0.0000                 0.0000
 Depolar     --     0.0000                 0.0000                 0.0000
 Atom AN      X      Y      Z        X      Y      Z        X      Y      Z
   1   6     0.06   0.01  -0.10     0.07   0.04  -0.13     0.00  -0.00  -0.00
   2   6     0.01   0.05   0.04     0.01  -0.03  -0.06     0.00   0.00  -0.00
   3   6    -0.01   0.00   0.01    -0.01  -0.01   0.00     0.01   0.01  -0.01
   4   6     0.01   0.00  -0.00    -0.01  -0.00   0.01     0.06  -0.05   0.24
   5   6     0.01   0.17   0.01    -0.00  -0.07  -0.01    -0.02   0.01  -0.01
   6   6    -0.12   0.03   0.05     0.06  -0.02  -0.03     0.00   0.00   0.00
   7   6     0.01  -0.08   0.08    -0.00   0.06  -0.06    -0.00  -0.00  -0.00
   8   6    -0.00   0.01   0.01    -0.03   0.11   0.09    -0.03  -0.01  -0.02
   9   1    -0.23  -0.18   0.13    -0.33  -0.28   0.19     0.00  -0.00   0.00
  10   1    -0.02   0.16  -0.07    -0.06   0.19  -0.11    -0.00   0.00   0.00
  11   1     0.03  -0.01   0.33     0.09  -0.06   0.46     0.00   0.00   0.00
  12   1     0.08  -0.06  -0.13    -0.06   0.05   0.10    -0.01  -0.01   0.00
  13   1    -0.11  -0.12  -0.08     0.09   0.06   0.05     0.00  -0.00  -0.00
  14   1     0.01   0.01   0.00     0.02   0.03  -0.01    -0.03   0.04   0.04
  15   1     0.02  -0.00  -0.01     0.03  -0.01  -0.02    -0.01  -0.08   0.02
  16   1    -0.02   0.01   0.01     0.02   0.01  -0.00    -0.23   0.18  -0.90
  17   1    -0.18  -0.28  -0.21     0.08   0.12   0.09     0.04  -0.06   0.05
  18   1     0.14  -0.35   0.13    -0.06   0.15  -0.06     0.01   0.02   0.02
  19   1     0.16  -0.08  -0.22    -0.09   0.05   0.12    -0.00  -0.00  -0.00
  20   1     0.27   0.02   0.08    -0.15  -0.01  -0.05     0.00  -0.00  -0.00
  21   1    -0.14   0.06  -0.20     0.10  -0.03   0.14     0.00   0.00   0.00
  22   1     0.09   0.21  -0.10    -0.07  -0.15   0.08    -0.00  -0.00  -0.00
  23   1     0.02  -0.03  -0.00     0.21  -0.24  -0.09     0.10   0.04   0.09
  24   1    -0.02  -0.03  -0.03    -0.16  -0.18  -0.25     0.01  -0.01  -0.00
                     52                     53                     54
                        a                      a                      a 
 Frequencies --  2946.5065              2958.1664              2966.2221
 Red. masses --     1.8804                 1.8949                 1.8357
 Frc consts  --     0.0000                 0.0000                 0.0000
 IR Inten    --    44.1431               112.4267                56.3503
 Raman Activ --     0.0000                 0.0000                 0.0000
 Depolar     --     0.0000                 0.0000                 0.0000
 Atom AN      X      Y      Z        X      Y      Z        X      Y      Z
   1   6    -0.01   0.00   0.00     0.02   0.00   0.01    -0.00  -0.00   0.00
   2   6     0.11   0.08  -0.01    -0.18  -0.13   0.03    -0.01  -0.01  -0.00
   3   6     0.03  -0.24  -0.01     0.05  -0.15  -0.06    -0.02   0.01   0.02
   4   6     0.00  -0.01   0.01     0.00  -0.00  -0.00    -0.01   0.00  -0.01
   5   6     0.00   0.00   0.00    -0.00   0.00  -0.00     0.05  -0.01   0.05
   6   6    -0.00   0.00  -0.00     0.00   0.00   0.01    -0.10  -0.04  -0.13
   7   6     0.00   0.00   0.00    -0.00   0.00  -0.00     0.08   0.05   0.03
   8   6    -0.01  -0.00  -0.01    -0.01   0.00  -0.01    -0.13  -0.03  -0.11
   9   1     0.00  -0.00   0.01    -0.02   0.00  -0.04    -0.00  -0.00  -0.01
  10   1     0.01  -0.00  -0.02    -0.01   0.01   0.02    -0.00  -0.00   0.00
  11   1     0.01   0.02  -0.00    -0.03  -0.04   0.00     0.00   0.00  -0.00
  12   1    -0.36  -0.34  -0.04     0.54   0.51   0.07     0.03   0.03   0.00
  13   1    -0.04   0.03   0.06     0.13  -0.06  -0.17    -0.00   0.00   0.00
  14   1    -0.17   0.16   0.24    -0.23   0.25   0.32     0.06  -0.07  -0.08
  15   1     0.08   0.71  -0.19     0.04   0.29  -0.09    -0.00   0.03  -0.00
  16   1    -0.01   0.01  -0.03    -0.00  -0.00   0.00     0.01  -0.01   0.05
  17   1     0.00  -0.00   0.00     0.00  -0.00   0.00    -0.09   0.13  -0.09
  18   1    -0.01  -0.01  -0.01    -0.00   0.00   0.00    -0.09  -0.08  -0.11
  19   1     0.00   0.00   0.00    -0.01  -0.00  -0.01     0.46   0.07   0.30
  20   1    -0.00   0.00   0.00     0.00  -0.00  -0.01    -0.07   0.06   0.17
  21   1    -0.00  -0.01   0.00    -0.00  -0.00  -0.00    -0.13  -0.19   0.04
  22   1    -0.01  -0.00  -0.01     0.01   0.00   0.01    -0.18  -0.01  -0.20
  23   1     0.03   0.01   0.03     0.03   0.02   0.03     0.41   0.19   0.41
  24   1     0.01  -0.01  -0.00     0.02  -0.01  -0.00     0.06  -0.07  -0.02
                     55                     56                     57
                        a                      a                      a 
 Frequencies --  2968.3028              2973.3217              2983.6715
 Red. masses --     1.8600                 1.5510                 2.0020
 Frc consts  --     0.0000                 0.0000                 0.0000
 IR Inten    --     6.8240               123.1095                34.6613
 Raman Activ --     0.0000                 0.0000                 0.0000
 Depolar     --     0.0000                 0.0000                 0.0000
 Atom AN      X      Y      Z        X      Y      Z        X      Y      Z
   1   6     0.00   0.00   0.00     0.01   0.00  -0.00     0.00  -0.00   0.00
   2   6     0.01   0.00  -0.00    -0.05  -0.04   0.00    -0.00  -0.00  -0.00
   3   6     0.02  -0.01  -0.03    -0.11  -0.02   0.17    -0.00  -0.00  -0.00
   4   6     0.01  -0.00   0.03     0.00  -0.01   0.03    -0.00   0.00  -0.01
   5   6     0.04  -0.01   0.05    -0.00   0.01  -0.01    -0.14   0.04  -0.16
   6   6    -0.12  -0.04  -0.15    -0.01  -0.00  -0.01    -0.02  -0.00  -0.01
   7   6    -0.00  -0.01   0.00    -0.02  -0.01  -0.01     0.16   0.10   0.08
   8   6     0.14   0.03   0.11     0.04   0.01   0.03     0.04   0.01   0.03
   9   1    -0.00   0.00  -0.00    -0.01  -0.00  -0.02    -0.01   0.00  -0.01
  10   1     0.00  -0.00  -0.00    -0.02   0.00   0.02     0.00  -0.00  -0.00
  11   1    -0.00  -0.00   0.00    -0.01  -0.01   0.00     0.00   0.00   0.00
  12   1    -0.01  -0.01  -0.00     0.18   0.17   0.02     0.01   0.01   0.00
  13   1    -0.01   0.00   0.01     0.01  -0.01  -0.02    -0.00   0.00   0.00
  14   1    -0.08   0.09   0.11     0.36  -0.43  -0.49    -0.00   0.00   0.00
  15   1    -0.00  -0.06   0.01     0.04   0.52  -0.10     0.00   0.01  -0.00
  16   1    -0.03   0.02  -0.10    -0.03   0.02  -0.10     0.01  -0.01   0.03
  17   1    -0.07   0.10  -0.07     0.02  -0.03   0.03     0.25  -0.36   0.25
  18   1    -0.09  -0.07  -0.10    -0.01  -0.00  -0.01     0.26   0.23   0.30
  19   1     0.50   0.08   0.33     0.05   0.01   0.03     0.06   0.01   0.04
  20   1    -0.08   0.07   0.20    -0.01   0.00   0.01    -0.00   0.00   0.01
  21   1     0.02   0.03  -0.00     0.03   0.05  -0.01    -0.23  -0.33   0.08
  22   1    -0.01   0.00   0.00     0.04   0.00   0.04    -0.34  -0.02  -0.35
  23   1    -0.43  -0.20  -0.43    -0.11  -0.05  -0.11    -0.12  -0.05  -0.11
  24   1    -0.07   0.07   0.02    -0.03   0.03   0.01    -0.01   0.01   0.00
                     58                     59                     60
                        a                      a                      a 
 Frequencies --  2990.8285              2994.4714              2997.4096
 Red. masses --     2.0087                 1.5416                 1.6137
 Frc consts  --     0.0000                 0.0000                 0.0000
 IR Inten    --   273.0327                47.5289                37.0900
 Raman Activ --     0.0000                 0.0000                 0.0000
 Depolar     --     0.0000                 0.0000                 0.0000
 Atom AN      X      Y      Z        X      Y      Z        X      Y      Z
   1   6     0.00   0.00   0.01    -0.00  -0.00   0.02     0.01  -0.01  -0.06
   2   6     0.01  -0.01  -0.02     0.03  -0.02  -0.05    -0.11   0.07   0.17
   3   6    -0.00  -0.00   0.01     0.00  -0.00  -0.00    -0.01   0.02   0.01
   4   6     0.01  -0.00   0.03    -0.00   0.00  -0.00    -0.00   0.00   0.00
   5   6     0.12  -0.03   0.13     0.00   0.06   0.00     0.01  -0.00   0.01
   6   6     0.08   0.03   0.09     0.11  -0.05  -0.13     0.03  -0.01  -0.02
   7   6     0.15   0.09   0.08     0.00  -0.07   0.07     0.02  -0.02   0.04
   8   6     0.05   0.02   0.04    -0.01   0.00  -0.00     0.00   0.01   0.01
   9   1    -0.01   0.00  -0.02    -0.02  -0.00  -0.04     0.07  -0.00   0.11
  10   1     0.01  -0.00  -0.01     0.03  -0.01  -0.03    -0.10   0.03   0.12
  11   1    -0.00  -0.00   0.00     0.01   0.01   0.00     0.00   0.00  -0.01
  12   1     0.04   0.03   0.00     0.05   0.04  -0.00    -0.18  -0.14   0.01
  13   1    -0.06   0.01   0.06    -0.15   0.03   0.16     0.59  -0.12  -0.63
  14   1     0.01  -0.02  -0.02    -0.01   0.01   0.01     0.03  -0.03  -0.04
  15   1     0.00   0.03  -0.01     0.00   0.00  -0.00    -0.00  -0.02   0.01
  16   1    -0.02   0.02  -0.08     0.00  -0.00   0.01    -0.00   0.00  -0.00
  17   1    -0.21   0.30  -0.21     0.11  -0.14   0.11    -0.02   0.03  -0.02
  18   1    -0.22  -0.19  -0.26    -0.12  -0.08  -0.14    -0.02  -0.02  -0.03
  19   1    -0.30  -0.05  -0.19    -0.22  -0.05  -0.18    -0.07  -0.01  -0.05
  20   1     0.05  -0.05  -0.13    -0.17   0.23   0.65    -0.03   0.05   0.14
  21   1    -0.22  -0.31   0.07     0.22   0.28  -0.05     0.07   0.09  -0.01
  22   1    -0.32  -0.01  -0.34    -0.21  -0.03  -0.21    -0.14  -0.02  -0.14
  23   1    -0.14  -0.07  -0.14     0.01   0.01   0.01    -0.02  -0.01  -0.02
  24   1    -0.02   0.02   0.01     0.03  -0.02  -0.00     0.02  -0.01   0.00
                     61                     62                     63
                        a                      a                      a 
 Frequencies --  3001.3864              3008.2758              3019.2356
 Red. masses --     1.5047                 1.5218                 1.9316
 Frc consts  --     0.0000                 0.0000                 0.0000
 IR Inten    --   135.8382                99.7323               108.0621
 Raman Activ --     0.0000                 0.0000                 0.0000
 Depolar     --     0.0000                 0.0000                 0.0000
 Atom AN      X      Y      Z        X      Y      Z        X      Y      Z
   1   6    -0.01  -0.00   0.01    -0.00  -0.00   0.00    -0.00  -0.04  -0.28
   2   6     0.01  -0.01  -0.02    -0.00   0.00   0.00     0.02  -0.02  -0.05
   3   6    -0.00  -0.00   0.00     0.00   0.01  -0.00     0.00  -0.01  -0.00
   4   6     0.00  -0.00   0.00    -0.00   0.01  -0.01     0.00  -0.00  -0.00
   5   6    -0.01  -0.10  -0.02     0.02   0.17   0.03    -0.00   0.00  -0.00
   6   6    -0.05   0.02   0.06    -0.06   0.03   0.09    -0.00   0.00   0.00
   7   6    -0.01  -0.12   0.12    -0.00  -0.04   0.04     0.00  -0.00   0.01
   8   6    -0.02   0.01   0.00    -0.01   0.01  -0.00     0.00  -0.00  -0.00
   9   1    -0.02  -0.00  -0.03     0.00  -0.00   0.00     0.38  -0.01   0.60
  10   1     0.02  -0.01  -0.02     0.01  -0.00  -0.01    -0.40   0.11   0.43
  11   1     0.02   0.02   0.00     0.01   0.01   0.00     0.04   0.03  -0.05
  12   1     0.02   0.02  -0.00    -0.01  -0.00  -0.00     0.05   0.04  -0.00
  13   1    -0.07   0.02   0.07     0.01  -0.00  -0.01    -0.14   0.03   0.15
  14   1    -0.00   0.00   0.00    -0.01   0.01   0.01    -0.01   0.02   0.02
  15   1     0.00   0.01  -0.00    -0.00  -0.03   0.01     0.00   0.02  -0.01
  16   1    -0.00   0.00  -0.01     0.01  -0.01   0.04     0.00  -0.00   0.00
  17   1    -0.16   0.20  -0.17     0.29  -0.35   0.30     0.00  -0.00   0.00
  18   1     0.20   0.15   0.24    -0.35  -0.25  -0.41     0.00   0.00   0.00
  19   1     0.09   0.02   0.08     0.12   0.03   0.10     0.00   0.00   0.00
  20   1     0.07  -0.10  -0.29     0.10  -0.14  -0.40     0.00  -0.00  -0.01
  21   1     0.37   0.47  -0.08     0.13   0.17  -0.03     0.01   0.01  -0.00
  22   1    -0.35  -0.05  -0.34    -0.12  -0.02  -0.12    -0.02  -0.00  -0.02
  23   1    -0.00   0.00   0.00     0.00   0.00   0.00     0.00   0.00   0.00
  24   1     0.07  -0.06  -0.00     0.05  -0.04  -0.00    -0.01   0.01  -0.00
                     64                     65                     66
                        a                      a                      a 
 Frequencies --  3025.5885              3029.9246              3054.1176
 Red. masses --     1.6338                 1.6469                 1.5812
 Frc consts  --     0.0000                 0.0000                 0.0000
 IR Inten    --    98.2376                35.9641                49.5204
 Raman Activ --     0.0000                 0.0000                 0.0000
 Depolar     --     0.0000                 0.0000                 0.0000
 Atom AN      X      Y      Z        X      Y      Z        X      Y      Z
   1   6    -0.22  -0.00   0.00    -0.06   0.01   0.01     0.13   0.18  -0.02
   2   6    -0.02  -0.01   0.01    -0.01  -0.00   0.00     0.01   0.01  -0.00
   3   6    -0.00  -0.00   0.01     0.00  -0.00  -0.00    -0.00   0.00   0.00
   4   6    -0.00   0.00   0.00     0.00  -0.00  -0.00    -0.00   0.00  -0.00
   5   6     0.00  -0.00  -0.00     0.00   0.00   0.00    -0.00  -0.00  -0.00
   6   6     0.00  -0.00  -0.00    -0.00   0.00   0.01    -0.00  -0.00  -0.00
   7   6    -0.00   0.01  -0.01     0.01  -0.02   0.02     0.00  -0.00   0.00
   8   6    -0.05   0.05   0.01     0.17  -0.16  -0.03    -0.01   0.01   0.00
   9   1     0.27  -0.00   0.52     0.09  -0.00   0.16     0.10   0.02   0.13
  10   1     0.41  -0.13  -0.53     0.15  -0.04  -0.18     0.09   0.00  -0.08
  11   1     0.11   0.14  -0.00    -0.00   0.00   0.00    -0.67  -0.67   0.02
  12   1     0.04   0.04   0.01     0.01   0.01   0.00    -0.03  -0.02  -0.00
  13   1     0.03  -0.00  -0.03     0.02  -0.00  -0.02    -0.01   0.00   0.01
  14   1     0.01  -0.01  -0.01    -0.01   0.01   0.01     0.00  -0.00  -0.01
  15   1     0.00   0.02  -0.00     0.00   0.00  -0.00    -0.00  -0.01   0.00
  16   1    -0.00   0.00  -0.01     0.00  -0.00   0.01     0.00   0.00   0.00
  17   1    -0.01   0.01  -0.01     0.00  -0.01   0.00    -0.00   0.00  -0.00
  18   1     0.00   0.00   0.01    -0.00  -0.00  -0.01     0.00   0.00   0.00
  19   1    -0.00  -0.00  -0.00     0.00   0.00   0.00     0.00   0.00   0.00
  20   1    -0.00   0.01   0.02     0.01  -0.01  -0.03    -0.00   0.00   0.00
  21   1    -0.02  -0.03   0.00     0.05   0.06  -0.01     0.01   0.01  -0.00
  22   1     0.02   0.00   0.02    -0.05  -0.01  -0.05    -0.01  -0.00  -0.01
  23   1    -0.04  -0.01  -0.03     0.13   0.02   0.10    -0.00   0.00   0.00
  24   1     0.23  -0.17  -0.00    -0.73   0.53   0.01     0.04  -0.03   0.00
