20
 energy: -386.244471663398 gnorm: 0.001389271956 xtb: 6.7.1 (edcfbbe)
C           -2.36770113038973       -0.65085336974364       -0.99317406872079
C           -1.81464754264658        0.27056134585927        0.09492667533154
C           -1.50059102469718       -0.50824016031088        1.37233449801320
C           -0.61300283319062        1.06538444567893       -0.39861161925328
O            0.47812954608431        0.16911895147915       -0.77748801646650
C            1.51227665899141        0.01302018776593        0.07250763488765
O            1.62303682878802        0.60874786473859        1.13206186835189
C            2.50373905202833       -0.97059540408635       -0.46347213240922
H           -3.29040548918812       -1.13273134344754       -0.65477361944451
H           -1.64940570272964       -1.44085505891117       -1.23837380934584
H           -2.59053759978637       -0.09503534361958       -1.91040248273892
H           -2.57376791126880        1.03078824302770        0.32734277241937
H           -1.14752224380453        0.15214409240452        2.17084430959800
H           -0.73068778619268       -1.26713751009520        1.18860156362839
H           -2.39454408293144       -1.02881273453215        1.73011238728552
H           -0.85518691202534        1.60887779138132       -1.31564422137494
H           -0.25625001013017        1.76750696753154        0.35807298253025
H            2.00208880662962       -1.90940485686355       -0.71514928826917
H            3.28671782291962       -1.14770737409086        0.27309078038765
H            2.94513102712682       -0.57582639248908       -1.38414247459328
20
 energy: -386.244477867864 gnorm: 0.000691171548 xtb: 6.7.1 (edcfbbe)
C           -2.36560967149290       -0.65186526960637       -0.99346030969979
C           -1.81477714011153        0.27027286267669        0.09478986595985
C           -1.50311191944295       -0.50714388472409        1.37339586079228
C           -0.61289973254733        1.06537418874577       -0.39704875539653
O            0.47845801492755        0.16933190504551       -0.77738019033943
C            1.51242080223363        0.01168878613043        0.07251599857838
O            1.62400949468409        0.60823123766778        1.13067388771227
C            2.50397411184804       -0.97040415559371       -0.46505740807227
H           -3.28743433215374       -1.13535873328186       -0.65505493338527
H           -1.64600287146984       -1.44045530544745       -1.23846313305318
H           -2.58916840094003       -0.09647140950898       -1.91044584432492
H           -2.57461656341659        1.03031808525539        0.32521387218306
H           -1.14927581951774        0.15407467454057        2.17063481139565
H           -0.73476234615915       -1.26809393557978        1.19171600520253
H           -2.39884011640580       -1.02468801314262        1.73141966998167
H           -0.85454639126799        1.61063585811550       -1.31314981605545
H           -0.25530494230061        1.76554735989261        0.36117938245071
H            2.00235156648646       -1.90892317032761       -0.71648028578546
H            3.28814494026636       -1.14758702847461        0.26991382545099
H            2.94386087575187       -0.57553410085915       -1.38624692991718
20
 energy: -386.244484290848 gnorm: 0.001731980641 xtb: 6.7.1 (edcfbbe)
C           -2.36064705729595       -0.65455990816206       -0.99414575359176
C           -1.81514370315112        0.26964132690874        0.09462171500762
C           -1.50884682094770       -0.50436440981775        1.37631831703383
C           -0.61282777669161        1.06554897612852       -0.39346774260952
O            0.47923032718330        0.17061500296345       -0.77734784003223
C            1.51520021753880        0.01251639692385        0.07060080205556
O            1.62618869693690        0.60549991471774        1.13005835206830
C            2.50408672460143       -0.97046030441266       -0.46918848230660
H           -3.28055982108302       -1.14203597889918       -0.65634827595599
H           -1.63752325274449       -1.43991128464048       -1.23839178866019
H           -2.58572598543616       -0.10019362673963       -1.91108267515504
H           -2.57675166317110        1.02932941743045        0.32028332729613
H           -1.15321879355202        0.15856573132500        2.17112614697010
H           -0.74393171596475       -1.26985334165852        1.19904629226734
H           -2.40802313401452       -1.01561324761897        1.73509770849271
H           -0.85342255559817        1.61439445020947       -1.30768571782039
H           -0.25444789926366        1.76225682466698        0.36767464774456
H            2.00130116290051       -1.90804264512362       -0.72082114195402
H            3.28993712974008       -1.14919256945187        0.26335193654556
H            2.94199552272432       -0.57519172082310       -1.39102996981865
20
 energy: -386.244489221393 gnorm: 0.000998023007 xtb: 6.7.1 (edcfbbe)
C           -2.35612697829107       -0.65698998359750       -0.99476228291200
C           -1.81557931395829        0.26994686432398        0.09434359007387
C           -1.51360851815331       -0.50133429719342        1.37886007265239
C           -0.61253946417187        1.06638145496828       -0.39069212556011
O            0.47849795411420        0.17042427464608       -0.77602405965836
C            1.51509214370989        0.00975071563850        0.07118002784422
O            1.62834382711807        0.60184180007862        1.13148247382824
C            2.50411114610658       -0.97051723226648       -0.47352833547530
H           -3.27462216872777       -1.14808810804395       -0.65817721498699
H           -1.62948941379160       -1.43970054458285       -1.23768148590712
H           -2.58216618098293       -0.10391253910534       -1.91245623939865
H           -2.57880589004015        1.02941354585111        0.31572280458744
H           -1.15665742632693        0.16280146213624        2.17224155718076
H           -0.75112511818430       -1.27011492132953        1.20513503098515
H           -2.41489464359018       -1.00827061019460        1.73837651752922
H           -0.85179456604240        1.61809631968364       -1.30352009558425
H           -0.25449354854543        1.76063742646267        0.37273222106159
H            2.00139089389131       -1.90843742169364       -0.72485871340508
H            3.29240680643318       -1.14943453923088        0.25657603610352
H            2.93893025718989       -0.57354562475523       -1.39627595678516
20
 energy: -386.244489221393 gnorm: 0.000998023007 xtb: 6.7.1 (edcfbbe)
C           -2.35612697829107       -0.65698998359750       -0.99476228291200
C           -1.81557931395829        0.26994686432398        0.09434359007387
C           -1.51360851815331       -0.50133429719342        1.37886007265239
C           -0.61253946417187        1.06638145496828       -0.39069212556011
O            0.47849795411420        0.17042427464608       -0.77602405965836
C            1.51509214370989        0.00975071563850        0.07118002784422
O            1.62834382711807        0.60184180007862        1.13148247382824
C            2.50411114610658       -0.97051723226648       -0.47352833547530
H           -3.27462216872777       -1.14808810804395       -0.65817721498699
H           -1.62948941379160       -1.43970054458285       -1.23768148590712
H           -2.58216618098293       -0.10391253910534       -1.91245623939865
H           -2.57880589004015        1.02941354585111        0.31572280458744
H           -1.15665742632693        0.16280146213624        2.17224155718076
H           -0.75112511818430       -1.27011492132953        1.20513503098515
H           -2.41489464359018       -1.00827061019460        1.73837651752922
H           -0.85179456604240        1.61809631968364       -1.30352009558425
H           -0.25449354854543        1.76063742646267        0.37273222106159
H            2.00139089389131       -1.90843742169364       -0.72485871340508
H            3.29240680643318       -1.14943453923088        0.25657603610352
H            2.93893025718989       -0.57354562475523       -1.39627595678516
