18
 energy: -272.903439881588 gnorm: 0.001552532216 xtb: 6.7.1 (edcfbbe)
C           -1.36354625037359        1.62869564692307        0.04921415542151
C           -1.30948225131966        0.14575814428296       -0.31708721210240
C           -0.13078155110776       -0.65313445714957        0.25695625629261
H           -0.13772296451915       -0.55368531164232        1.35367354130125
C           -0.29348948843174       -2.13450215029485       -0.09816725466376
C            1.23783399564520       -0.18103073384409       -0.23672612986506
O            1.68685858748076        1.05890710207407        0.34365316736881
H           -2.32135111017977        2.06060740033493       -0.26159991267997
H           -1.27108323996912        1.77118480278654        1.13348778343879
H           -0.56696223093734        2.20106490231568       -0.43474632279025
H           -1.29745749798536        0.03703685158621       -1.41124855828893
H           -2.23419520967743       -0.33449436822570        0.02832973439289
H            0.48684171526636       -2.74716498008007        0.36462699781273
H           -0.23717713654504       -2.27854793892913       -1.18410861060233
H           -1.26498116395171       -2.51055122597203        0.23805281205173
H            1.20935367843401       -0.01306454456282       -1.32013637461733
H            1.98500686805591       -0.96412866097627       -0.03928640867724
H            1.72800780179795        0.92403303394434        1.29938111987797
18
 energy: -272.903450412132 gnorm: 0.000493347338 xtb: 6.7.1 (edcfbbe)
C           -1.36386222140096        1.62864997874331        0.04836599142186
C           -1.31094210276171        0.14564849267364       -0.31547213317677
C           -0.13159205463216       -0.65326389649940        0.25713365568442
H           -0.13760471725633       -0.55432280646946        1.35382414488492
C           -0.29222286551552       -2.13447289902308       -0.09820264729875
C            1.23671431064065       -0.18062522463291       -0.23734937450104
O            1.68778113825744        1.05776324934060        0.34540466019853
H           -2.31801484342412        2.06503389452159       -0.26611592860548
H           -1.27245828326666        1.77278691648288        1.13059285820389
H           -0.56511243785031        2.19822897710935       -0.43279679510519
H           -1.30133454620095        0.03536596416216       -1.40900236848343
H           -2.23536258926828       -0.33308740823288        0.03203644196586
H            0.48917858870733       -2.74552800798736        0.36526685775554
H           -0.23393714041993       -2.27844693487523       -1.18405835563160
H           -1.26307309356189       -2.51303137456487        0.23656288683378
H            1.20742981599264       -0.01029596511468       -1.32034351979246
H            1.98347524757967       -0.96459804882327       -0.04233168059320
H            1.72661056283414        0.92117853394951        1.30075395100273
18
 energy: -272.903457977746 gnorm: 0.000744583932 xtb: 6.7.1 (edcfbbe)
C           -1.36215263155155        1.62839993207097        0.04713130607992
C           -1.31324378923267        0.14487428413885       -0.31369177187395
C           -0.13249275897412       -0.65297808835152        0.25761611834046
H           -0.13719116034534       -0.55462763676555        1.35436057949759
C           -0.29099935047685       -2.13406486727848       -0.09845835264810
C            1.23511724804720       -0.17926474990945       -0.23816335094143
O            1.68845475288579        1.05678361984264        0.34848970873096
H           -2.31318231475975        2.06751306174480       -0.27286793819521
H           -1.27466028342943        1.77485144040069        1.12896833786931
H           -0.55963817718751        2.19421619273609       -0.43214133065365
H           -1.30711903401013        0.03182713742030       -1.40684803800989
H           -2.23699373461648       -0.33220969813925        0.03790706115034
H            0.49104448155657       -2.74351339194968        0.36618443126001
H           -0.23005694177011       -2.27794140970223       -1.18422264878882
H           -1.26149340000612       -2.51506191851754        0.23440396052692
H            1.20375747365239       -0.00483058043480       -1.32043696440932
H            1.98174747367994       -0.96437896086421       -0.04747934251251
H            1.72477524036388        0.91738905998851        1.30351666678344
18
 energy: -272.903467116021 gnorm: 0.001192072769 xtb: 6.7.1 (edcfbbe)
C           -1.35773704221151        1.62899119141214        0.04058153101959
C           -1.31931748593458        0.14233348893899       -0.30583380680257
C           -0.13421601939281       -0.65365545181540        0.25906153094056
H           -0.13506677801717       -0.55701213830874        1.35596218257089
C           -0.28630203315076       -2.13464594152925       -0.09909693700508
C            1.22984882462535       -0.17318996196648       -0.24108395483780
O            1.69107619062807        1.05305983335705        0.36177555124573
H           -2.29888444688356        2.07648013040851       -0.29750815586385
H           -1.28384862152249        1.78391006945581        1.12236038495454
H           -0.54140549183541        2.18036654659422       -0.43304742494457
H           -1.32585460354144        0.01908857977411       -1.39796315513697
H           -2.24091651420456       -0.32812484823479        0.06083641015355
H            0.49588758114381       -2.74091634436326        0.36960232869484
H           -0.21711559041348       -2.27686244640309       -1.18467684219104
H           -1.25711457940256       -2.52072832919680        0.22690158129019
H            1.18982665064807        0.01822846802793       -1.32039959260075
H            1.97674496395537       -0.96240652405673       -0.06864616487657
H            1.72006923941347        0.90206718227383        1.31544213659889
18
 energy: -272.903472141156 gnorm: 0.000541274882 xtb: 6.7.1 (edcfbbe)
C           -1.35789907847098        1.62868779786231        0.03981608297734
C           -1.31869809781357        0.14155403378969       -0.30612261102438
C           -0.13322803511338       -0.65338643100890        0.25949034508616
H           -0.13419075449016       -0.55713306857375        1.35644621392382
C           -0.28701251018733       -2.13429098828809       -0.09922006050310
C            1.23076993290568       -0.17280518285447       -0.24050720368322
O            1.69074642004634        1.05280565209753        0.36336726819085
H           -2.30058481245500        2.07347938503382       -0.29656843290684
H           -1.28287506696026        1.78530336291443        1.12168806198466
H           -0.54367358680902        2.18145184620186       -0.43528864541162
H           -1.32493302953397        0.01791130645224       -1.39828778170640
H           -2.24015472699070       -0.32895194620337        0.06049567779146
H            0.49372535232267       -2.74226080617554        0.36943255938622
H           -0.21878033032167       -2.27658651583008       -1.18477263989163
H           -1.25864268631307       -2.51814272959403        0.22703623016331
H            1.18994623404290        0.02025046917081       -1.31933514621002
H            1.97847928442353       -0.96156063986686       -0.07004911295605
H            1.72267965836350        0.90065812333185        1.31664674274475
18
 energy: -272.903476587400 gnorm: 0.000412574622 xtb: 6.7.1 (edcfbbe)
C           -1.35836014129265        1.62895828325358        0.03710694144392
C           -1.31820262668551        0.14068884013392       -0.30510260661759
C           -0.13220379049103       -0.65356463713967        0.26021739362121
H           -0.13277093114296       -0.55807707357838        1.35723059286029
C           -0.28731628150270       -2.13442733573787       -0.09917190789100
C            1.23081701322353       -0.17052559293484       -0.23999023984151
O            1.69089924425411        1.05183024069724        0.36910703787367
H           -2.30284269261389        2.07033450056436       -0.29855985806737
H           -1.28209024144791        1.78885750462385        1.11876549500207
H           -0.54597712038378        2.18188804570168       -0.44109352239777
H           -1.32534890728132        0.01476111761091       -1.39707726175557
H           -2.23898860036458       -0.32947243223738        0.06335916791084
H            0.49150541533895       -2.74457317794250        0.36968291058371
H           -0.21939741307610       -2.27614020049343       -1.18476764059445
H           -1.26026248812222       -2.51572135222196        0.22645053104517
H            1.18774004445042        0.02785453019119       -1.31767260246727
H            1.97917817096561       -0.95993134152795       -0.07546583963155
H            1.72929555192898        0.89424402979152        1.32124869217692
18
 energy: -272.903476587400 gnorm: 0.000412574622 xtb: 6.7.1 (edcfbbe)
C           -1.35836014129265        1.62895828325358        0.03710694144392
C           -1.31820262668551        0.14068884013392       -0.30510260661759
C           -0.13220379049103       -0.65356463713967        0.26021739362121
H           -0.13277093114296       -0.55807707357838        1.35723059286029
C           -0.28731628150270       -2.13442733573787       -0.09917190789100
C            1.23081701322353       -0.17052559293484       -0.23999023984151
O            1.69089924425411        1.05183024069724        0.36910703787367
H           -2.30284269261389        2.07033450056436       -0.29855985806737
H           -1.28209024144791        1.78885750462385        1.11876549500207
H           -0.54597712038378        2.18188804570168       -0.44109352239777
H           -1.32534890728132        0.01476111761091       -1.39707726175557
H           -2.23898860036458       -0.32947243223738        0.06335916791084
H            0.49150541533895       -2.74457317794250        0.36968291058371
H           -0.21939741307610       -2.27614020049343       -1.18476764059445
H           -1.26026248812222       -2.51572135222196        0.22645053104517
H            1.18774004445042        0.02785453019119       -1.31767260246727
H            1.97917817096561       -0.95993134152795       -0.07546583963155
H            1.72929555192898        0.89424402979152        1.32124869217692
