22
 energy: -350.311582028032 gnorm: 0.004062133402 xtb: 6.7.1 (edcfbbe)
C            1.99627486212245        1.56025199954813       -0.32113024015233
C            1.22494280764831        0.44922879915394        0.38254935311195
C            2.07457017870478       -0.83015529631518        0.52521061446073
C           -0.02904076099656        0.04595702709261       -0.36191686716335
O           -0.08119352761583        0.06646178791104       -1.58985845226158
C           -1.21013490168495       -0.38581331619490        0.48051316227306
C           -2.13445791155558       -1.35070691860536       -0.24889623021406
C           -1.95228259236070        0.90090984363016        0.89840164146222
H            1.37892313984822        2.45755445413159       -0.43792573295608
H            2.32777574031191        1.24080986014866       -1.31383746273020
H            2.88140863315280        1.82897066144019        0.26332568370531
H            0.93316898244301        0.77371944497268        1.38827783319358
H            1.51260567615674       -1.63426927701825        1.01209730301642
H            2.40063896572571       -1.18123676338615       -0.45981623849763
H            2.96126056613030       -0.61742619785504        1.12958448186499
H           -0.81162724370676       -0.85591636036664        1.38865655562839
H           -1.60223486271426       -2.26039083946012       -0.54592029516873
H           -2.96699101733865       -1.63842375413852        0.40097554045601
H           -2.55065355883441       -0.88957828125714       -1.14974137092481
H           -2.40910959935660        1.37255784344586        0.02342238472870
H           -2.74223190231312        0.65343222650093        1.61182103297948
H           -1.28191029393258        1.62477182633496        1.37133318346874
22
 energy: -350.311610165254 gnorm: 0.001741515695 xtb: 6.7.1 (edcfbbe)
C            1.99815087640872        1.55814219470359       -0.32274231955482
C            1.22667916904536        0.44892858244783        0.38285292850273
C            2.07656459882439       -0.82925208306495        0.52576315489240
C           -0.03046998715580        0.04965416143753       -0.36003073947222
O           -0.08306949828890        0.06970483245872       -1.58662485089502
C           -1.21117956136306       -0.38480848151599        0.48114365374804
C           -2.13462614312894       -1.35038042553417       -0.24924503297067
C           -1.95544746006329        0.89986664142437        0.89861956751621
H            1.38173600548076        2.45538568027076       -0.44037781157819
H            2.32832067363122        1.23669853491570       -1.31506856302008
H            2.88407358741788        1.82654583356875        0.26073648995348
H            0.93585378938677        0.77464741435253        1.38840191650374
H            1.51694452478213       -1.63362153518913        1.01390486528513
H            2.40118967148375       -1.18010065735813       -0.45944283010892
H            2.96417860021898       -0.61564437334896        1.12856326175651
H           -0.81292777801876       -0.85483029026967        1.38931295018210
H           -1.60225172266359       -2.25898309151528       -0.54829576032355
H           -2.96584331501169       -1.63915816343416        0.40131973664719
H           -2.55257843229138       -0.88793932696670       -1.14856265481703
H           -2.40803738921748        1.37433424358249        0.02194564271088
H           -2.74994913257931        0.64912587451453        1.60715370383074
H           -1.28760941209096        1.62239260344822        1.37779862537179
22
 energy: -350.311636078771 gnorm: 0.004165212002 xtb: 6.7.1 (edcfbbe)
C            2.00256984432955        1.55258585282168       -0.32772100834477
C            1.23091059806600        0.44837154843551        0.38450533605379
C            2.08163695730781       -0.82679525930934        0.52727365882914
C           -0.03152843411541        0.05131374855594       -0.35607778546866
O           -0.08884186193295        0.08106056462754       -1.58005177616861
C           -1.21338031583592       -0.38218901062472        0.48385629045005
C           -2.13455326559204       -1.34845566946720       -0.25031820783079
C           -1.96423164690812        0.89699918516952        0.90041382938903
H            1.38914365037865        2.45024589976918       -0.44936299877584
H            2.32970527874645        1.22410396334513       -1.31854036395516
H            2.89099851863710        1.82076219848282        0.25218437170494
H            0.94242750046686        0.77799771615307        1.38963335670327
H            1.52883271054610       -1.63189350871041        1.02030043632355
H            2.40286208716244       -1.17839385113498       -0.45820181628908
H            2.97193539272043       -0.60906209920860        1.12485291911964
H           -0.81709375369816       -0.85307553000401        1.39224102617452
H           -1.60099429729513       -2.25359823514075       -0.55597342575806
H           -2.96199336488757       -1.64160086751332        0.40227920649617
H           -2.55767419598043       -0.88181465514131       -1.14503252315756
H           -2.40148175819775        1.38113914601746        0.01924271367777
H           -2.77417932249081        0.63824614296899        1.59124612421921
H           -1.30536778086192        1.61475917149496        1.40037698591607
22
 energy: -350.311649128262 gnorm: 0.002615107734 xtb: 6.7.1 (edcfbbe)
C            2.00353786030485        1.55181974855957       -0.32910461701341
C            1.23105293031408        0.44886504658695        0.38463398451115
C            2.08116695192098       -0.82696283392286        0.52808430403944
C           -0.03237586458087        0.05430048708025       -0.35563621423943
O           -0.09020739644210        0.08454926923527       -1.58040527258542
C           -1.21332484764510       -0.38213672224228        0.48467839937448
C           -2.13377839701287       -1.34873268072400       -0.25020814529907
C           -1.96536804073480        0.89656475626446        0.90104052332662
H            1.39105538375421        2.45029907706205       -0.45191730461156
H            2.33027658676765        1.22166797118507       -1.31963269669553
H            2.89248993360751        1.81981119529069        0.25006484158487
H            0.94310623219900        0.77991526204389        1.38950073143924
H            1.52856656878013       -1.63139903397753        1.02295980968573
H            2.40150904558544       -1.18022104609327       -0.45738827089218
H            2.97259910594672       -0.60888008319616        1.12397757354483
H           -0.81701895347504       -0.85308976126352        1.39309688491620
H           -1.59870369948435       -2.25226187238400       -0.55835413312175
H           -2.96036137870820       -1.64493534711813        0.40243016616095
H           -2.55846927745680       -0.88101518265983       -1.14366520863307
H           -2.39839300621558        1.38348977142543        0.01993681343310
H           -2.77840583099779        0.63634355414091        1.58675304892291
H           -1.30925101530276        1.61271417885092        1.40628116140326
22
 energy: -350.311662662013 gnorm: 0.000946754125 xtb: 6.7.1 (edcfbbe)
C            2.00550564481315        1.55143677685245       -0.33148183184709
C            1.23057517104683        0.45064448306141        0.38387551027723
C            2.07856769232674       -0.82728935135737        0.52954335069764
C           -0.03301243926865        0.05706179521528       -0.35505345132347
O           -0.09270610699827        0.09009295857063       -1.58103437130133
C           -1.21301007441742       -0.38234813244785        0.48561445597831
C           -2.13202011685665       -1.34956152333940       -0.25019375733204
C           -1.96627494243463        0.89606402244372        0.90260357549886
H            1.39423454920226        2.45104498375220       -0.45617001341055
H            2.33195949437381        1.21903228962906       -1.32153273561793
H            2.89481805595561        1.81927679378569        0.24716036078459
H            0.94331997948999        0.78367424824913        1.38829552195110
H            1.52473346801819       -1.62926640662056        1.02788045839352
H            2.39690733588897       -1.18452747691834       -0.45563258007639
H            2.97172407524531       -0.60911140673090        1.12291524162688
H           -0.81601604012170       -0.85330118701134        1.39376752444986
H           -1.59385219720562       -2.25007231222826       -0.56261195407132
H           -2.95671110024965       -1.65178982531954        0.40262747729573
H           -2.55975580879619       -0.88050154992978       -1.14153608560050
H           -2.39203213466815        1.38774880037330        0.02176197721441
H           -2.78384665946701        0.63388302972961        1.58038525991230
H           -1.31340428973696        1.60851345343828        1.41594254245867
22
 energy: -350.311672021709 gnorm: 0.001903984916 xtb: 6.7.1 (edcfbbe)
C            2.00884006435644        1.54991043938634       -0.33622485662270
C            1.23009713946587        0.45374359478023        0.38261030533955
C            2.07398804089372       -0.82725977081272        0.53220731940479
C           -0.03409201454303        0.06197308308159       -0.35455096978678
O           -0.09726561365188        0.09969552410496       -1.58085611235531
C           -1.21210169348115       -0.38203246219345        0.48694975297975
C           -2.12826008212826       -1.35040806447516       -0.25075877382372
C           -1.96840106155800        0.89461441906184        0.90560779556544
H            1.40007440486952        2.45100413441837       -0.46419420897807
H            2.33491612958515        1.21347024877522       -1.32509625382654
H            2.89844192150049        1.81708204139889        0.24216056592904
H            0.94429060242190        0.79036811713308        1.38637325106068
H            1.51825204747346       -1.62439610264056        1.03646123773857
H            2.38791845805380       -1.19093894480538       -0.45225522091205
H            2.96982280064018       -0.60905827409641        1.12144135303361
H           -0.81394032351587       -0.85315321459187        1.39450575959691
H           -1.58537724743161       -2.24573948633707       -0.57053985943009
H           -2.94850976897746       -1.66214753211458        0.40348413200112
H           -2.56238382273780       -0.87907519490146       -1.13785099199400
H           -2.38129825587420        1.39505546237088        0.02373858267672
H           -2.79516236354919        0.62762050081097        1.57001521215276
H           -1.32014455257113        1.60037352816115        1.43389869307102
22
 energy: -350.311677822719 gnorm: 0.000874764025 xtb: 6.7.1 (edcfbbe)
C            2.01174524370774        1.54884367246317       -0.33944157958011
C            1.22988164586821        0.45643413319841        0.38114262928430
C            2.06981438032588       -0.82680389861918        0.53424304574638
C           -0.03466211302581        0.06537818062563       -0.35488430688617
O           -0.10036149913160        0.10674925389821       -1.58030221020263
C           -1.21113891845875       -0.38170535375106        0.48686312912092
C           -2.12545968594239       -1.35117894324403       -0.25148593700870
C           -1.96955162748871        0.89289020221527        0.90783900650681
H            1.40493610190717        2.45061675513094       -0.47007720615343
H            2.33800345789121        1.20954100967499       -1.32714688720899
H            2.90118883097660        1.81555896214593        0.23937000904892
H            0.94478119276396        0.79577955337181        1.38419300130614
H            1.51201221160381       -1.61966096710736        1.04245218596188
H            2.38046244285506       -1.19529384029487       -0.44920642830129
H            2.96710120378970       -0.60943100959509        1.12138579450156
H           -0.81165316583018       -0.85320633990914        1.39356545269923
H           -1.57970717945495       -2.24278218874259       -0.57638700007389
H           -2.94179360093611       -1.66895758636118        0.40440657343420
H           -2.56474049875678       -0.87857509942495       -1.13530684812401
H           -2.37626869422033        1.39914250339320        0.02620945321091
H           -2.80108461674200        0.62275833930096        1.56530250219301
H           -1.32379932284575        1.59460279547228        1.44439260117806
22
 energy: -350.311681131863 gnorm: 0.000525703477 xtb: 6.7.1 (edcfbbe)
C            2.01430103872692        1.54782546323891       -0.34192011505707
C            1.22950852328592        0.45880972743396        0.38000219002841
C            2.06573623472835       -0.82630296206381        0.53630955361711
C           -0.03532913413166        0.06888631591034       -0.35614047382712
O           -0.10264592802988        0.11316152187066       -1.58082766278583
C           -1.21008095808773       -0.38131668046897        0.48624067424668
C           -2.12305094796304       -1.35168265999653       -0.25256778365216
C           -1.97014520755944        0.89105926736263        0.90993352243586
H            1.40947413833089        2.45036608070418       -0.47527605047550
H            2.34154093897560        1.20611136913635       -1.32840716828221
H            2.90332528137509        1.81414541537412        0.23773449742734
H            0.94445056225387        0.80060038670124        1.38225580395668
H            1.50569339481049       -1.61562638939972        1.04718557424611
H            2.37446619473229       -1.19869208598471       -0.44604261113526
H            2.96386583409531       -0.61017382056671        1.12251790741602
H           -0.80907554824836       -0.85341713128987        1.39192188470741
H           -1.57534992990221       -2.24053481486221       -0.58130201048634
H           -2.93615171008877       -1.67381925771590        0.40494641673309
H           -2.56662968413637       -0.87839407873523       -1.13381195077611
H           -2.37624375319345        1.39986824277519        0.02941388099616
H           -2.80240490954528        0.61839014033380        1.56556190221777
H           -1.32554777000886        1.59143435190031        1.44939936860191
22
 energy: -350.311681131863 gnorm: 0.000525703477 xtb: 6.7.1 (edcfbbe)
C            2.01430103872692        1.54782546323891       -0.34192011505707
C            1.22950852328592        0.45880972743396        0.38000219002841
C            2.06573623472835       -0.82630296206381        0.53630955361711
C           -0.03532913413166        0.06888631591034       -0.35614047382712
O           -0.10264592802988        0.11316152187066       -1.58082766278583
C           -1.21008095808773       -0.38131668046897        0.48624067424668
C           -2.12305094796304       -1.35168265999653       -0.25256778365216
C           -1.97014520755944        0.89105926736263        0.90993352243586
H            1.40947413833089        2.45036608070418       -0.47527605047550
H            2.34154093897560        1.20611136913635       -1.32840716828221
H            2.90332528137509        1.81414541537412        0.23773449742734
H            0.94445056225387        0.80060038670124        1.38225580395668
H            1.50569339481049       -1.61562638939972        1.04718557424611
H            2.37446619473229       -1.19869208598471       -0.44604261113526
H            2.96386583409531       -0.61017382056671        1.12251790741602
H           -0.80907554824836       -0.85341713128987        1.39192188470741
H           -1.57534992990221       -2.24053481486221       -0.58130201048634
H           -2.93615171008877       -1.67381925771590        0.40494641673309
H           -2.56662968413637       -0.87839407873523       -1.13381195077611
H           -2.37624375319345        1.39986824277519        0.02941388099616
H           -2.80240490954528        0.61839014033380        1.56556190221777
H           -1.32554777000886        1.59143435190031        1.44939936860191
