
                                 *****************
                                 * O   R   C   A *
                                 *****************

                                            #,                                       
                                            ###                                      
                                            ####                                     
                                            #####                                    
                                            ######                                   
                                           ########,                                 
                                     ,,################,,,,,                         
                               ,,#################################,,                 
                          ,,##########################################,,             
                       ,#########################################, ''#####,          
                    ,#############################################,,   '####,        
                  ,##################################################,,,,####,       
                ,###########''''           ''''###############################       
              ,#####''   ,,,,##########,,,,          '''####'''          '####       
            ,##' ,,,,###########################,,,                        '##       
           ' ,,###''''                  '''############,,,                           
         ,,##''                                '''############,,,,        ,,,,,,###''
      ,#''                                            '''#######################'''  
     '                                                          ''''####''''         
             ,#######,   #######,   ,#######,      ##                                
            ,#'     '#,  ##    ##  ,#'     '#,    #''#        ,####,   ,####,        
            ##       ##  ##   ,#'  ##            #'  '#       #'       #'  '#        
            ##       ##  #######   ##           ,######,      #####,   #    #        
            '#,     ,#'  ##    ##  '#,     ,#' ,#      #,     #,   #   #,  ,#        
             '#######'   ##     ##  '#######'  #'      '#     '####' # '####'        



                #########################################################
                #                        -***-                          #
                #          Department of theory and spectroscopy        #
                #                                                       #
                #                      Frank Neese                      #
                #                                                       #
                #     Directorship, Architecture, Infrastructure        #
                #                    SHARK, DRIVERS                     #
                #        Core code/Algorithms in most modules           #
                #                                                       #
                #        Max Planck Institute fuer Kohlenforschung      #
                #                Kaiser Wilhelm Platz 1                 #
                #                 D-45470 Muelheim/Ruhr                 #
                #                      Germany                          #
                #                                                       #
                #                  All rights reserved                  #
                #                        -***-                          #
                #########################################################


                         Program Version 6.0.0  -   RELEASE  -


 With contributions from (in alphabetic order):
   Daniel Aravena         : Magnetic Suceptibility
   Michael Atanasov       : Ab Initio Ligand Field Theory (pilot matlab implementation)
   Alexander A. Auer      : GIAO ZORA, VPT2 properties, NMR spectrum
   Ute Becker             : All parallelization in ORCA, NUMFREQ, NUMCALC
   Giovanni Bistoni       : ED, misc. LED, open-shell LED, HFLD
   Martin Brehm           : Molecular dynamics
   Dmytro Bykov           : pre 5.0 version of the SCF Hessian
   Marcos Casanova-Páez   : Triplet and SCS-CIS(D). UHF-(DLPNO)-IP/EA/STEOM-CCSD. UHF-CVS-IP/STEOM-CCSD
   Vijay G. Chilkuri      : MRCI spin determinant printing, contributions to CSF-ICE
   Pauline Colinet        : FMM embedding
   Dipayan Datta          : RHF DLPNO-CCSD density
   Achintya Kumar Dutta   : EOM-CC, STEOM-CC
   Nicolas Foglia         : Exact transition moments, OPA infrastructure, MCD improvements
   Dmitry Ganyushin       : Spin-Orbit,Spin-Spin,Magnetic field MRCI
   Miquel Garcia          : C-PCM and meta-GGA Hessian, CCSD/C-PCM, Gaussian charge scheme
   Tiago L. C. Gouveia    : GS-ROHF, GS-ROCIS
   Yang Guo               : DLPNO-NEVPT2, F12-NEVPT2, CIM, IAO-localization
   Andreas Hansen         : Spin unrestricted coupled pair/coupled cluster methods
   Ingolf Harden          : AUTO-CI MPn and infrastructure 
   Benjamin Helmich-Paris : MC-RPA, TRAH-(SCF,CASSCF), AVAS, COSX integrals, SCF dyn. polar.
   Lee Huntington         : MR-EOM, pCC
   Robert Izsak           : Overlap fitted RIJCOSX, COSX-SCS-MP3, EOM
   Riya Kayal             : Wick's Theorem for AUTO-CI, AUTO-CI UHF-CCSDT
   Emily Kempfer          : AUTO-CI, RHF CISDT and CCSDT
   Christian Kollmar      : KDIIS, OOCD, Brueckner-CCSD(T), CCSD density, CASPT2, CASPT2-K, improved NEVPT2
   Axel Koslowski         : Symmetry handling
   Simone Kossmann        : Meta GGA functionals, TD-DFT gradient, OOMP2, (MP2 Hessian; deprecated post 5.0)
   Lucas Lang             : DCDCAS
   Marvin Lechner         : AUTO-CI (C++ implementation), FIC-MRCC
   Spencer Leger          : CASSCF response
   Dagmar Lenk            : GEPOL surface, SMD, ORCA-2-JSON
   Dimitrios Liakos       : Extrapolation schemes; Compound Job, initial MDCI parallelization
   Dimitrios Manganas     : Further ROCIS development; embedding schemes. LFT, Crystal Embedding
   Dimitrios Pantazis     : SARC Basis sets
   Anastasios Papadopoulos: AUTO-CI, single reference methods and gradients
   Taras Petrenko         : pre 6.0 DFT Hessian and TD-DFT gradient, (ASA, deprecated), ECA, 1-Electron XAS/XES, NRVS
   Peter Pinski           : DLPNO-MP2, DLPNO-MP2 Gradient
   Christoph Reimann      : Effective Core Potentials
   Marius Retegan         : Local ZFS, SOC
   Christoph Riplinger    : Optimizer, TS searches, QM/MM, DLPNO-CCSD(T), (RO)-DLPNO pert. Triples
   Michael Roemelt        : Original ROCIS implementation
   Masaaki Saitow         : Open-shell DLPNO-CCSD energy and density
   Barbara Sandhoefer     : DKH picture change effects
   Kantharuban Sivalingam : CASSCF convergence/infrastructure, NEVPT2 and variants, FIC-MRCI
   Bernardo de Souza      : ESD, SOC TD-DFT
   Georgi Stoychev        : AutoAux, RI-MP2 NMR, DLPNO-MP2 response, X2C
   Van Anh Tran           : RI-MP2 g-tensors
   Willem Van den Heuvel  : Paramagnetic NMR
   Zikuan Wang            : NOTCH, Electric field optimization 
   Frank Wennmohs         : Technical directorship and infrastructure
   Hang Xu                : AUTO-CI-Response properties 


 We gratefully acknowledge several colleagues who have allowed us to
 interface, adapt or use parts of their codes:
   Stefan Grimme, W. Hujo, H. Kruse, P. Pracht,  : VdW corrections, initial TS optimization,
                  C. Bannwarth, S. Ehlert,         DFT functionals, gCP, sTDA/sTD-DF
                  L. Wittmann, M. Mueller
   Ed Valeev, F. Pavosevic, A. Kumar             : LibInt (2-el integral package), F12 methods
   Garnet Chan, S. Sharma, J. Yang, R. Olivares  : DMRG
   Ulf Ekstrom                                   : XCFun DFT Library
   Mihaly Kallay                                 : mrcc  (arbitrary order and MRCC methods)
   Frank Weinhold                                : gennbo (NPA and NBO analysis)
   Simon Mueller                                 : openCOSMO-RS
   Christopher J. Cramer and Donald G. Truhlar   : smd solvation model
   Lars Goerigk                                  : TD-DFT with DH, B97 family of functionals
   V. Asgeirsson, H. Jonsson                     : NEB implementation
   FAccTs GmbH                                   : IRC, NEB, NEB-TS, DLPNO-Multilevel, CI-OPT
                                                   MM, QMMM, 2- and 3-layer-ONIOM, Crystal-QMMM,
                                                   LR-CPCM, SF, NACMEs, symmetry and pop. for TD-DFT,
                                                   nearIR, NL-DFT gradient (VV10), updates on ESD,
                                                   ML-optimized integration grids, MBIS, APM,
                                                   GOAT, DOCKER, SOLVATOR, interface openCOSMO-RS
   S Lehtola, MJT Oliveira, MAL Marques          : LibXC Library
   Liviu Ungur et al                             : ANISO software


 Your calculation uses the libint2 library for the computation of 2-el integrals
 For citations please refer to: http://libint.valeyev.net

 Your ORCA version has been built with support for libXC version: 6.2.2
 For citations please refer to: https://libxc.gitlab.io

 This ORCA versions uses:
   CBLAS   interface :  Fast vector & matrix operations
   LAPACKE interface :  Fast linear algebra routines
   SCALAPACK package :  Parallel linear algebra routines
   Shared memory     :  Shared parallel matrices
   BLAS/LAPACK       :  OpenBLAS 0.3.27  USE64BITINT DYNAMIC_ARCH NO_AFFINITY SkylakeX SINGLE_THREADED
        Core in use  :  SkylakeX
   Copyright (c) 2011-2014, The OpenBLAS Project


Your calculation utilizes the geometrical counterpoise correction gCP
Please cite in your paper:
H.Kruse, S. Grimme J.Chem.Phys., 136, (2012), 154101 
   

Your calculation utilizes the atom-pairwise dispersion correction
based on EEQ partial charges (D4)


Your calculation utilizes the SMD solvation module
Please cite in your paper:
A.V. Marenich, C.J. Cramer, D.G. Truhlar J. Phys. Chem. B, 113, (2009), 6378 

================================================================================

----- Orbital basis set information -----
Your calculation utilizes the basis: def2-mTZVPP
   Stefan Grimme, Andreas Hansen, Sebastian Ehlert, and Jan-Michael Mewes 
   J. Chem. Phys. 154, 064103 (2021). DOI: 10.1063/5.0040021

----- AuxJ basis set information -----
Your calculation utilizes the auxiliary basis: def2/J
   F. Weigend, Phys. Chem. Chem. Phys. 8, 1057 (2006).

================================================================================
                                        WARNINGS
                       Please study these warnings very carefully!
================================================================================

Using LibXC functional ID 497 : Re-regularized SCAN exchange by Furness et al
[ 1]  J. W. Furness, A. D. Kaplan, J. Ning, J. P. Perdew, and J. Sun.,  J. Phys. Chem. Lett. 11, 8208-8215 (2020)
[ 2]  J. W. Furness, A. D. Kaplan, J. Ning, J. P. Perdew, and J. Sun.,  J. Phys. Chem. Lett. 11, 9248-9248 (2020)
Using LibXC functional ID 498 : Re-regularized SCAN correlation by Furness et al
[ 1]  J. W. Furness, A. D. Kaplan, J. Ning, J. P. Perdew, and J. Sun.,  J. Phys. Chem. Lett. 11, 8208-8215 (2020)
[ 2]  J. W. Furness, A. D. Kaplan, J. Ning, J. P. Perdew, and J. Sun.,  J. Phys. Chem. Lett. 11, 9248-9248 (2020)
Using LibXC functional ID 497 : Re-regularized SCAN exchange by Furness et al
[ 1]  J. W. Furness, A. D. Kaplan, J. Ning, J. P. Perdew, and J. Sun.,  J. Phys. Chem. Lett. 11, 8208-8215 (2020)
[ 2]  J. W. Furness, A. D. Kaplan, J. Ning, J. P. Perdew, and J. Sun.,  J. Phys. Chem. Lett. 11, 9248-9248 (2020)
Using LibXC functional ID 498 : Re-regularized SCAN correlation by Furness et al
[ 1]  J. W. Furness, A. D. Kaplan, J. Ning, J. P. Perdew, and J. Sun.,  J. Phys. Chem. Lett. 11, 8208-8215 (2020)
[ 2]  J. W. Furness, A. D. Kaplan, J. Ning, J. P. Perdew, and J. Sun.,  J. Phys. Chem. Lett. 11, 9248-9248 (2020)

================================================================================
                                       INPUT FILE
================================================================================
NAME = sp_solv.inp
|  1> ! r2scan-3c def2/J RI DEFGRID2 scfconv6 printgap
|  2> %output
|  3>     printlevel normal
|  4> end
|  5> %cpcm
|  6>     smd true
|  7>     smdsolvent "water"
|  8> end
|  9> * xyz 0 1
| 10> C -3.0974328357 -0.2329131099 0.4739069317
| 11> C -2.095839657 -0.5793979296 -0.6223328074
| 12> C -0.8873051898 0.3585371199 -0.659143077
| 13> C 0.0435958493 0.2477994531 0.552348009
| 14> C 0.8615275607 -1.0467631265 0.5607687963
| 15> C 2.0493423348 -0.7801365663 -0.3742139582
| 16> C 2.2062542403 0.75052359 -0.4353187727
| 17> C 1.1427531978 1.3146611869 0.5131023956
| 18> H -2.6640123534 -0.3756955127 1.4603132807
| 19> H -3.4162507779 0.8032884527 0.3843234902
| 20> H -3.9751151598 -0.8703997213 0.3961624077
| 21> H -1.7629547989 -1.6107280759 -0.4926610525
| 22> H -2.6015432115 -0.5198645121 -1.5891760201
| 23> H -0.3143558708 0.1544858877 -1.5648007087
| 24> H -1.2526918496 1.386781811 -0.7238637366
| 25> H -0.550370242 0.3441692519 1.4639765612
| 26> H 1.2203446608 -1.2352812095 1.5738393555
| 27> H 0.2823138642 -1.9122287241 0.2449560516
| 28> H 2.9530080471 -1.2613225776 -0.0021364504
| 29> H 1.8504175133 -1.1831986057 -1.3671523268
| 30> H 3.2059223185 1.0660898695 -0.1396439212
| 31> H 2.0349344319 1.1107406226 -1.4496581384
| 32> H 1.563171751 1.4340635202 1.512956518
| 33> H 0.7709679106 2.2840585187 0.1839125425
| 34> *
| 35> 
| 36>                          ****END OF INPUT****
================================================================================

                       ****************************
                       * Single Point Calculation *
                       ****************************

---------------------------------
CARTESIAN COORDINATES (ANGSTROEM)
---------------------------------
  C     -3.097433   -0.232913    0.473907
  C     -2.095840   -0.579398   -0.622333
  C     -0.887305    0.358537   -0.659143
  C      0.043596    0.247799    0.552348
  C      0.861528   -1.046763    0.560769
  C      2.049342   -0.780137   -0.374214
  C      2.206254    0.750524   -0.435319
  C      1.142753    1.314661    0.513102
  H     -2.664012   -0.375696    1.460313
  H     -3.416251    0.803288    0.384323
  H     -3.975115   -0.870400    0.396162
  H     -1.762955   -1.610728   -0.492661
  H     -2.601543   -0.519865   -1.589176
  H     -0.314356    0.154486   -1.564801
  H     -1.252692    1.386782   -0.723864
  H     -0.550370    0.344169    1.463977
  H      1.220345   -1.235281    1.573839
  H      0.282314   -1.912229    0.244956
  H      2.953008   -1.261323   -0.002136
  H      1.850418   -1.183199   -1.367152
  H      3.205922    1.066090   -0.139644
  H      2.034934    1.110741   -1.449658
  H      1.563172    1.434064    1.512957
  H      0.770968    2.284059    0.183913

----------------------------
CARTESIAN COORDINATES (A.U.)
----------------------------
  NO LB      ZA    FRAG     MASS         X           Y           Z
   0 C     6.0000    0    12.011   -5.853300   -0.440142    0.895554
   1 C     6.0000    0    12.011   -3.960563   -1.094903   -1.176039
   2 C     6.0000    0    12.011   -1.676764    0.677537   -1.245600
   3 C     6.0000    0    12.011    0.082384    0.468273    1.043786
   4 C     6.0000    0    12.011    1.628051   -1.978096    1.059699
   5 C     6.0000    0    12.011    3.872696   -1.474244   -0.707162
   6 C     6.0000    0    12.011    4.169216    1.418284   -0.822633
   7 C     6.0000    0    12.011    2.159491    2.484350    0.969623
   8 H     1.0000    0     1.008   -5.034254   -0.709962    2.759592
   9 H     1.0000    0     1.008   -6.455778    1.517995    0.726266
  10 H     1.0000    0     1.008   -7.511879   -1.644817    0.748638
  11 H     1.0000    0     1.008   -3.331502   -3.043835   -0.930994
  12 H     1.0000    0     1.008   -4.916204   -0.982402   -3.003107
  13 H     1.0000    0     1.008   -0.594047    0.291936   -2.957045
  14 H     1.0000    0     1.008   -2.367245    2.620638   -1.367904
  15 H     1.0000    0     1.008   -1.040049    0.650386    2.766515
  16 H     1.0000    0     1.008    2.306117   -2.334343    2.974125
  17 H     1.0000    0     1.008    0.533496   -3.613589    0.462900
  18 H     1.0000    0     1.008    5.580376   -2.383554   -0.004037
  19 H     1.0000    0     1.008    3.496782   -2.235921   -2.583543
  20 H     1.0000    0     1.008    6.058315    2.014618   -0.263889
  21 H     1.0000    0     1.008    3.845469    2.098996   -2.739457
  22 H     1.0000    0     1.008    2.953967    2.709987    2.859073
  23 H     1.0000    0     1.008    1.456918    4.316245    0.347544

--------------------------------
INTERNAL COORDINATES (ANGSTROEM)
--------------------------------
 C      0   0   0     0.000000000000     0.00000000     0.00000000
 C      1   0   0     1.524789228544     0.00000000     0.00000000
 C      2   1   0     1.530239429449   113.37780127     0.00000000
 C      3   2   1     1.531845366512   114.62059975    67.57744301
 C      4   3   2     1.531331272675   112.95780374    71.97957673
 C      5   4   3     1.534987430368   105.25603615    81.80224379
 C      6   5   4     1.539894690726   106.00251224    22.19725190
 C      4   3   2     1.532279691825   111.42818060   185.94031029
 H      1   2   3     1.086847558020   111.14311801   294.55080611
 H      1   2   3     1.087834432069   110.47248050    55.00783048
 H      1   2   3     1.087547540461   110.21374000   174.79874014
 H      2   1   3     1.091452684929   109.24713022   122.99756763
 H      2   1   3     1.092733320979   108.64750478   239.78453916
 H      3   2   1     1.090927849751   108.66936751   189.64348926
 H      3   2   1     1.093152926042   108.29944640   306.25026166
 H      4   3   2     1.092313816136   108.85793869   308.03899346
 H      5   4   3     1.091146524010   109.07520202   199.73169334
 H      5   4   3     1.088235680612   112.73316843   319.54376516
 H      6   5   4     1.089308665562   110.92610828   143.50635792
 H      6   5   4     1.089934262262   110.45313543   262.48755197
 H      7   6   5     1.089193261611   111.76112821   123.51930412
 H      7   6   5     1.089950061303   110.45181935   243.18434074
 H      8   4   3     1.091199772339   109.21376571   160.90564469
 H      8   4   3     1.089183844015   112.49287097    40.85036043

---------------------------
INTERNAL COORDINATES (A.U.)
---------------------------
 C      0   0   0     0.000000000000     0.00000000     0.00000000
 C      1   0   0     2.881434053901     0.00000000     0.00000000
 C      2   1   0     2.891733440986   113.37780127     0.00000000
 C      3   2   1     2.894768222223   114.62059975    67.57744301
 C      4   3   2     2.893796725665   112.95780374    71.97957673
 C      5   4   3     2.900705862406   105.25603615    81.80224379
 C      6   5   4     2.909979240552   106.00251224    22.19725190
 C      4   3   2     2.895588978119   111.42818060   185.94031029
 H      1   2   3     2.053844233979   111.14311801   294.55080611
 H      1   2   3     2.055709155660   110.47248050    55.00783048
 H      1   2   3     2.055167009092   110.21374000   174.79874014
 H      2   1   3     2.062546662648   109.24713022   122.99756763
 H      2   1   3     2.064966714060   108.64750478   239.78453916
 H      3   2   1     2.061554867896   108.66936751   189.64348926
 H      3   2   1     2.065759652714   108.29944640   306.25026166
 H      4   3   2     2.064173964795   108.85793869   308.03899346
 H      5   4   3     2.061968102360   109.07520202   199.73169334
 H      5   4   3     2.056467405518   112.73316843   319.54376516
 H      6   5   4     2.058495053219   110.92610828   143.50635792
 H      6   5   4     2.059677259652   110.45313543   262.48755197
 H      7   6   5     2.058276971357   111.76112821   123.51930412
 H      7   6   5     2.059707115513   110.45181935   243.18434074
 H      8   4   3     2.062068727118   109.21376571   160.90564469
 H      8   4   3     2.058259174680   112.49287097    40.85036043

---------------------
BASIS SET INFORMATION
---------------------
There are 2 groups of distinct atoms

 Group   1 Type C   : 11s6p1d contracted to 5s3p1d pattern {62111/411/1}
 Group   2 Type H   : 4s1p contracted to 2s1p pattern {31/1}

Atom   0C    basis set group =>   1
Atom   1C    basis set group =>   1
Atom   2C    basis set group =>   1
Atom   3C    basis set group =>   1
Atom   4C    basis set group =>   1
Atom   5C    basis set group =>   1
Atom   6C    basis set group =>   1
Atom   7C    basis set group =>   1
Atom   8H    basis set group =>   2
Atom   9H    basis set group =>   2
Atom  10H    basis set group =>   2
Atom  11H    basis set group =>   2
Atom  12H    basis set group =>   2
Atom  13H    basis set group =>   2
Atom  14H    basis set group =>   2
Atom  15H    basis set group =>   2
Atom  16H    basis set group =>   2
Atom  17H    basis set group =>   2
Atom  18H    basis set group =>   2
Atom  19H    basis set group =>   2
Atom  20H    basis set group =>   2
Atom  21H    basis set group =>   2
Atom  22H    basis set group =>   2
Atom  23H    basis set group =>   2
---------------------------------
AUXILIARY/J BASIS SET INFORMATION
---------------------------------
There are 2 groups of distinct atoms

 Group   1 Type C   : 12s5p4d2f1g contracted to 6s4p3d1f1g pattern {711111/2111/211/2/1}
 Group   2 Type H   : 5s2p1d contracted to 3s1p1d pattern {311/2/1}

Atom   0C    basis set group =>   1
Atom   1C    basis set group =>   1
Atom   2C    basis set group =>   1
Atom   3C    basis set group =>   1
Atom   4C    basis set group =>   1
Atom   5C    basis set group =>   1
Atom   6C    basis set group =>   1
Atom   7C    basis set group =>   1
Atom   8H    basis set group =>   2
Atom   9H    basis set group =>   2
Atom  10H    basis set group =>   2
Atom  11H    basis set group =>   2
Atom  12H    basis set group =>   2
Atom  13H    basis set group =>   2
Atom  14H    basis set group =>   2
Atom  15H    basis set group =>   2
Atom  16H    basis set group =>   2
Atom  17H    basis set group =>   2
Atom  18H    basis set group =>   2
Atom  19H    basis set group =>   2
Atom  20H    basis set group =>   2
Atom  21H    basis set group =>   2
Atom  22H    basis set group =>   2
Atom  23H    basis set group =>   2

Checking for AutoStart:
The File: sp_solv.gbw exists
Trying to determine its content:
     ... Fine, the file contains calculation information
     ... Fine, the calculation information was read
     ... Fine, the file contains a basis set
     ... Fine, the basis set was read
     ... Fine, the file contains a geometry
     ... Fine, the geometry was read
     ... Fine, the file contains a set of orbitals
     ... Fine, the orbitals can be read
     => possible old guess file was deleted
     => GBW file was renamed to GES file
     => GES file is set as startup file
     => Guess is set to MORead
     ... now leaving AutoStart

------------------------------------------------------------------------------
                             ORCA STARTUP CALCULATIONS
                           -- RI-GTO INTEGRALS CHOSEN --
------------------------------------------------------------------------------
------------------------------------------------------------------------------
                   ___                                                        
                  /   \      - P O W E R E D   B Y -                         
                 /     \                                                     
                 |  |  |   _    _      __       _____    __    __             
                 |  |  |  | |  | |    /  \     |  _  \  |  |  /  |          
                  \  \/   | |  | |   /    \    | | | |  |  | /  /          
                 / \  \   | |__| |  /  /\  \   | |_| |  |  |/  /          
                |  |  |   |  __  | /  /__\  \  |    /   |      \           
                |  |  |   | |  | | |   __   |  |    \   |  |\   \          
                \     /   | |  | | |  |  |  |  | |\  \  |  | \   \       
                 \___/    |_|  |_| |__|  |__|  |_| \__\ |__|  \__/        
                                                                              
                      - O R C A' S   B I G   F R I E N D -                    
                                      &                                       
                       - I N T E G R A L  F E E D E R -                       
                                                                              
 v1 FN, 2020, v2 2021, v3 2022-2024                                           
------------------------------------------------------------------------------


----------------------
SHARK INTEGRAL PACKAGE
----------------------

Number of atoms                             ...     24
Number of basis functions                   ...    232
Number of shells                            ...    120
Maximum angular momentum                    ...      2
Integral batch strategy                     ... SHARK/LIBINT Hybrid
RI-J (if used) integral strategy            ... SPLIT-RIJ (Revised 2003 algorithm where possible)
Printlevel                                  ...      1
Contraction scheme used                     ... SEGMENTED contraction
Prescreening option                         ... SCHWARTZ
   Thresh                                   ... 1.000e-10
   Tcut                                     ... 1.000e-11
   Tpresel                                  ... 1.000e-11 
Coulomb Range Separation                    ... NOT USED
Exchange Range Separation                   ... NOT USED
Multipole approximations                    ... NOT USED
Finite Nucleus Model                        ... NOT USED
CABS basis                                  ... NOT available
Auxiliary Coulomb fitting basis             ... AVAILABLE
   # of basis functions in Aux-J            ...    568
   # of shells in Aux-J                     ...    200
   Maximum angular momentum in Aux-J        ...      4
Auxiliary J/K fitting basis                 ... NOT available
Auxiliary Correlation fitting basis         ... NOT available
Auxiliary 'external' fitting basis          ... NOT available

Checking pre-screening integrals            ... done (  0.0 sec) Dimension = 120
Check shell pair data                       ... done (  0.0 sec)
Shell pair information
Shell pair cut-off parameter TPreSel        ...   1.0e-11
Total number of shell pairs                 ...      7260
Shell pairs after pre-screening             ...      6535
Total number of primitive shell pairs       ...     25424
Primitive shell pairs kept                  ...     16328
          la=0 lb=0:   2361 shell pairs
          la=1 lb=0:   2584 shell pairs
          la=1 lb=1:    740 shell pairs
          la=2 lb=0:    525 shell pairs
          la=2 lb=1:    291 shell pairs
          la=2 lb=2:     34 shell pairs

Calculating one electron integrals          ... done (  0.0 sec)
Calculating RI/J V-Matrix + Cholesky decomp.... done (  0.1 sec)
Calculating Nuclear repulsion               ... done (  0.0 sec) ENN=    403.178399446486 Eh

Diagonalization of the overlap matrix:
Smallest eigenvalue                        ... 4.885e-05
Time for diagonalization                   ...    0.005 sec
Threshold for overlap eigenvalues          ... 1.000e-07
Number of eigenvalues below threshold      ... 0
Time for construction of square roots      ...    0.036 sec
Total time needed                          ...    0.056 sec

-------------------
DFT GRID GENERATION
-------------------

General Integration Accuracy     IntAcc      ... 4.388
Radial Grid Type                 RadialGrid  ... OptM3 with GC (2021)
Angular Grid (max. ang.)         AngularGrid ... 4 (Lebedev-302)
Angular grid pruning method      GridPruning ... 4 (adaptive)
Weight generation scheme         WeightScheme... mBecke (2022)
Basis function cutoff            BFCut       ... 1.0000e-10
Integration weight cutoff        WCut        ... 1.0000e-14
Partially contracted basis set               ... off
Rotationally invariant grid construction     ... off
Angular grids for H and He will be reduced by one unit

Total number of grid points                  ...    98635
Total number of batches                      ...     1550
Average number of points per batch           ...       63
Average number of grid points per atom       ...     4110
Initializing property integral containers    ... done (  0.0 sec)

SHARK setup successfully completed in   1.4 seconds

Maximum memory used throughout the entire STARTUP-calculation: 42.1 MB
-------------------------------------------------------------------------------
                                 ORCA GUESS
                   Start orbitals & Density for SCF / CASSCF
-------------------------------------------------------------------------------

------------
SCF SETTINGS
------------
Hamiltonian:
 Density Functional     Method          .... DFT(GTOs)
  Functional kind                       .... Exchange
  Functional name                       .... Re-regularized SCAN exchange by Furness et al
  Functional family                     .... MGGA
  Functional refs                              
    [ 0] J. W. Furness, A. D. Kaplan, J. Ning, J. P. Perdew, and J. Sun.,  J. Phys. Chem. Lett. 11, 8208-8215 (2020), doi: 10.1021/acs.jpclett.0c02405
    [ 1] J. W. Furness, A. D. Kaplan, J. Ning, J. P. Perdew, and J. Sun.,  J. Phys. Chem. Lett. 11, 9248-9248 (2020), doi: 10.1021/acs.jpclett.0c03077
  Functional external parameters        .... 6
    Parameter  0 _c1        =  6.670000e-01 : c1 parameter        
    Parameter  1 _c2        =  8.000000e-01 : c2 parameter        
    Parameter  2 _d         =  1.240000e+00 : d parameter         
    Parameter  3 _k1        =  6.500000e-02 : k1 parameter        
    Parameter  4 _eta       =  1.000000e-03 : eta parameter       
    Parameter  5 _dp2       =  3.610000e-01 : dp2 parameter       
  Functional kind                       .... Correlation
  Functional name                       .... Re-regularized SCAN correlation by Furness et al
  Functional family                     .... MGGA
  Functional refs                              
    [ 0] J. W. Furness, A. D. Kaplan, J. Ning, J. P. Perdew, and J. Sun.,  J. Phys. Chem. Lett. 11, 8208-8215 (2020), doi: 10.1021/acs.jpclett.0c02405
    [ 1] J. W. Furness, A. D. Kaplan, J. Ning, J. P. Perdew, and J. Sun.,  J. Phys. Chem. Lett. 11, 9248-9248 (2020), doi: 10.1021/acs.jpclett.0c03077
  Functional external parameters        .... 1
    Parameter  0 _eta       =  1.000000e-03 : Regularization parameter
 Gradients option       PostSCFGGA      .... off
 RI-approximation to the Coulomb term is turned on
   Number of AuxJ basis functions       .... 568


General Settings:
 Integral files         IntName         .... sp_solv
 Hartree-Fock type      HFTyp           .... RHF
 Total Charge           Charge          ....    0
 Multiplicity           Mult            ....    1
 Number of Electrons    NEL             ....   64
 Basis Dimension        Dim             ....  232
 Nuclear Repulsion      ENuc            ....    403.1783994465 Eh

Convergence Acceleration:
 AO-DIIS                CNVDIIS         .... on
   Start iteration      DIISMaxIt       ....    12
   Startup error        DIISStart       ....  0.200000
   # of expansion vecs  DIISMaxEq       ....     5
   Bias factor          DIISBfac        ....   1.050
   Max. coefficient     DIISMaxC        ....  10.000
 MO-DIIS                CNVKDIIS        .... off
 Trust-Rad. Augm. Hess. CNVTRAH         .... auto
   Auto Start mean grad. ratio tolernc. ....  1.125000
   Auto Start start iteration           ....     1
   Auto Start num. interpolation iter.  ....    10
   Max. Number of Micro iterations      ....    24
   Max. Number of Macro iterations      .... Maxiter - #DIIS iter
   Number of Davidson start vectors     ....     2
   Converg. threshold    (grad. norm)   ....   3.330e-04
   Grad. Scal. Fac. for Micro threshold ....   0.100
   Minimum threshold for Micro iter.    ....   1.000e-02
   NR start threshold (gradient norm)   ....   1.000e-04
   Initial trust radius                 ....   0.400
   Minimum AH scaling param. (alpha)    ....   1.000
   Maximum AH scaling param. (alpha)    .... 1000.000
   Quad. conv. algorithm                .... NR
   White noise on init. David. guess    .... on
   Maximum white noise                  ....   0.010
   Pseudo random numbers                .... off
   Inactive MOs                         .... canonical
   Orbital update algorithm             .... Taylor
   Preconditioner                       .... Diag
   Full preconditioner red. dimension   ....   250
   COSX micro iterations for RIJONX calc.... off
 SOSCF                  CNVSOSCF        .... on
   Start iteration      SOSCFMaxIt      ....   150
   Startup grad/error   SOSCFStart      ....  0.003300
   Hessian update       SOSCFHessUp     .... L-BFGS
 Level Shifting         CNVShift        .... on
   Level shift para.    LevelShift      ....    0.2500
   Turn off err/grad.   ShiftErr        ....    0.0010
 Zerner damping         CNVZerner       .... off
 Static damping         CNVDamp         .... on
   Fraction old density DampFac         ....    0.7000
   Max. Damping (<1)    DampMax         ....    0.9800
   Min. Damping (>=0)   DampMin         ....    0.0000
   Turn off err/grad.   DampErr         ....    0.1000

SCF Procedure:
 Maximum # iterations   MaxIter         ....   125
 SCF integral mode      SCFMode         .... Direct
   Integral package                     .... SHARK and LIBINT hybrid scheme
 Reset frequency        DirectResetFreq ....    20
 Integral Threshold     Thresh          ....  1.000e-10 Eh
 Primitive CutOff       TCut            ....  1.000e-11 Eh

Convergence Tolerance:
 Convergence Check Mode ConvCheckMode   .... Total+1el-Energy
 Convergence forced     ConvForced      .... 0
 Energy Change          TolE            ....  1.000e-06 Eh
 1-El. energy change                    ....  1.000e-03 Eh
 Orbital Gradient       TolG            ....  3.330e-04
 Orbital Rotation angle TolX            ....  3.330e-04
 DIIS Error             TolErr          ....  1.000e-06

---------------------
INITIAL GUESS: MOREAD
---------------------
Guess MOs are being read from file: sp_solv.ges
Input Geometry matches current geometry (good)
Atom 0: N(Shells)= 9 and 6 - projection required
Input basis set needs projection
NBasis(read)= 144
NBasis(calc)= 232
Basis set overlap was calculated
Using GuessMode=FMatrix for the initial guess
C*T matrix was formed
Effective Fockian was calculated
Effective Fockian was diagonalized
Initial density was built
                      ------------------
                      INITIAL GUESS DONE (   0.1 sec)
                      ------------------
             **** ENERGY FILE WAS UPDATED (sp_solv.en.tmp) ****
Finished Guess after   0.3 sec
Maximum memory used throughout the entire GUESS-calculation: 16.7 MB

-------------------------------------------------------------------------------------------
                                      ORCA LEAN-SCF
                              memory conserving SCF solver
-------------------------------------------------------------------------------------------

--------------------
CPCM SOLVATION MODEL
--------------------
CPCM parameters:
  Epsilon                                         ...      78.3550
  Refrac                                          ...       1.3328
  Rsolv                                           ...       1.3000
  Surface type                                    ... GAUSSIAN VDW
  Discretization scheme                           ... Constant charge density
    Threshold for H atoms                         ...       5.0000 (charges/Ang^2)
    Threshold for non-H atoms                     ...       5.0000 (charges/Ang^2)
  Epsilon function type                           ...         CPCM
Solvent:                                          ... WATER
SMD-CDS solvent descriptors:
  Soln                                            ...       1.3328
  Soln25                                          ...       1.3323
  Sola                                            ...       0.0000
  Solb                                            ...       0.0000
  Solg                                            ...       0.0000
  Solc                                            ...       0.0000
  Solh                                            ...       0.0000
Radii:
  Scheme                                          ... Element-dependent radii
  Radius for C  used is    3.4960 Bohr (=   1.8500 Ang.)
  Radius for H  used is    2.2677 Bohr (=   1.2000 Ang.)
Calculating surface                               ...        done! (  0.0s)
Cavity surface points                             ...         1718
Cavity Volume                                     ...     962.3980
Cavity Surface-area                               ...     602.9639
Calculating surface distance matrix               ...        done! (  0.0s)
Performing Cholesky decomposition & store         ...        done! (  0.1s)
Overall time for CPCM initialization              ...                 0.1s

----------------------------------------D-I-I-S--------------------------------------------
Iteration    Energy (Eh)           Delta-E    RMSDP     MaxDP     DIISErr   Damp  Time(sec)
-------------------------------------------------------------------------------------------
               ***  Starting incremental Fock matrix formation  ***
    1    -314.2225177508507841     0.00e+00  8.76e-03  4.27e-01  2.83e-01  0.700   4.1
    2    -314.2710744421946174    -4.86e-02  6.51e-03  2.96e-01  1.99e-01  0.700   3.8
                               ***Turning on AO-DIIS***
    3    -314.3054574384628950    -3.44e-02  4.66e-03  2.04e-01  1.39e-01  0.700   3.7
    4    -314.3296048481570324    -2.41e-02  3.29e-03  1.42e-01  9.74e-02  0.700   3.7
    5    -314.3465460852294200    -1.69e-02  7.72e-03  3.31e-01  6.82e-02  0.000   3.6
                              *** Initializing SOSCF ***
---------------------------------------S-O-S-C-F--------------------------------------
Iteration    Energy (Eh)           Delta-E    RMSDP     MaxDP     MaxGrad    Time(sec)
--------------------------------------------------------------------------------------
    6    -314.3862170319475808    -3.97e-02  6.71e-05  1.44e-03  2.09e-04     3.8
               *** Restarting incremental Fock matrix formation ***
    7    -314.3862179841530633    -9.52e-07  2.43e-05  4.94e-04  2.89e-05     4.1
                  *** Gradient check signals convergence ***

               *****************************************************
               *                     SUCCESS                       *
               *           SCF CONVERGED AFTER   7 CYCLES          *
               *****************************************************


SMD CDS free energy correction energy :                 3.12245     Kcal/mol
Total Energy after SMD CDS correction =              -314.381242045 Eh
             **** ENERGY FILE WAS UPDATED (sp_solv.en.tmp) ****

----------------
TOTAL SCF ENERGY
----------------

Total Energy       :       -314.38124204506408 Eh           -8554.74851 eV

Components:
Nuclear Repulsion  :        403.17839944648574 Eh           10971.04201 eV
Electronic Energy  :       -717.56211935799911 Eh          -19525.85794 eV
One Electron Energy:      -1221.36563714586214 Eh          -33235.04862 eV
Two Electron Energy:        503.80351778786309 Eh           13709.19068 eV
CPCM Dielectric    :         -0.00249807263970 Eh              -0.06798 eV
SMD CDS (Gcds)     :          0.00497593908896 Eh               0.13540 eV

Virial components:
Potential Energy   :       -627.30280236550266 Eh          -17069.77706 eV
Kinetic Energy     :        312.92156032043857 Eh            8515.02855 eV
Virial Ratio       :          2.00466468888603

DFT components:
N(Alpha)           :       32.000093286075 electrons
N(Beta)            :       32.000093286075 electrons
N(Total)           :       64.000186572150 electrons
E(X)               :      -47.379540621066 Eh       
E(C)               :       -1.994287566998 Eh       
E(XC)              :      -49.373828188063 Eh       

CPCM Solvation Model Properties:
Surface-charge          :         -0.05300991517753
Corrected charge        :         -0.00000000000000
Outlying charge corr.   :          0.00021104111491 Eh               0.00574 eV
Free-energy (cav+disp)  :          0.00497593908896 Eh               0.13540 eV

---------------
SCF CONVERGENCE
---------------

  Last Energy change         ...    9.5221e-07  Tolerance :   1.0000e-06
  Last MAX-Density change    ...    4.9419e-04  Tolerance :   1.0000e-05
  Last RMS-Density change    ...    2.4331e-05  Tolerance :   1.0000e-06
  Last DIIS Error            ...    2.0856e-04  Tolerance :   1.0000e-06
  Last Orbital Gradient      ...    2.8861e-05  Tolerance :   3.3300e-04
  Last Orbital Rotation      ...    5.2227e-05  Tolerance :   3.3300e-04


----------------
ORBITAL ENERGIES
----------------

  NO   OCC          E(Eh)            E(eV) 
   0   2.0000     -10.016385      -272.5597 
   1   2.0000     -10.014080      -272.4970 
   2   2.0000     -10.011031      -272.4140 
   3   2.0000     -10.010848      -272.4090 
   4   2.0000     -10.010458      -272.3984 
   5   2.0000     -10.009568      -272.3742 
   6   2.0000     -10.009426      -272.3703 
   7   2.0000     -10.005998      -272.2771 
   8   2.0000      -0.799262       -21.7490 
   9   2.0000      -0.739836       -20.1320 
  10   2.0000      -0.675800       -18.3895 
  11   2.0000      -0.664547       -18.0833 
  12   2.0000      -0.622496       -16.9390 
  13   2.0000      -0.550308       -14.9746 
  14   2.0000      -0.518263       -14.1026 
  15   2.0000      -0.494030       -13.4432 
  16   2.0000      -0.449268       -12.2252 
  17   2.0000      -0.436534       -11.8787 
  18   2.0000      -0.407739       -11.0952 
  19   2.0000      -0.389567       -10.6007 
  20   2.0000      -0.380581       -10.3561 
  21   2.0000      -0.362614        -9.8672 
  22   2.0000      -0.346321        -9.4239 
  23   2.0000      -0.315776        -8.5927 
  24   2.0000      -0.308639        -8.3985 
  25   2.0000      -0.304751        -8.2927 
  26   2.0000      -0.295426        -8.0389 
  27   2.0000      -0.292379        -7.9560 
  28   2.0000      -0.276734        -7.5303 
  29   2.0000      -0.274172        -7.4606 
  30   2.0000      -0.265969        -7.2374 
  31   2.0000      -0.260574        -7.0906 
  32   0.0000       0.084028         2.2865 
  33   0.0000       0.103284         2.8105 
  34   0.0000       0.110828         3.0158 
  35   0.0000       0.121898         3.3170 
  36   0.0000       0.130731         3.5574 
  37   0.0000       0.132201         3.5974 
  38   0.0000       0.133138         3.6229 
  39   0.0000       0.139923         3.8075 
  40   0.0000       0.152413         4.1474 
  41   0.0000       0.154868         4.2142 
  42   0.0000       0.174102         4.7376 
*Only the first 10 virtual orbitals were printed.

                    ********************************
                    * MULLIKEN POPULATION ANALYSIS *
                    ********************************

-----------------------
MULLIKEN ATOMIC CHARGES
-----------------------
   0 C :   -0.529323
   1 C :   -0.241638
   2 C :   -0.332438
   3 C :    0.013567
   4 C :   -0.386656
   5 C :   -0.355560
   6 C :   -0.338409
   7 C :   -0.379078
   8 H :    0.159205
   9 H :    0.154380
  10 H :    0.155858
  11 H :    0.143244
  12 H :    0.149778
  13 H :    0.157748
  14 H :    0.152146
  15 H :    0.167227
  16 H :    0.164939
  17 H :    0.162603
  18 H :    0.159961
  19 H :    0.168861
  20 H :    0.159034
  21 H :    0.168640
  22 H :    0.167025
  23 H :    0.158888
Sum of atomic charges:    0.0000000

--------------------------------
MULLIKEN REDUCED ORBITAL CHARGES
--------------------------------
  0 C s       :     3.343879  s :     3.343879
      pz      :     1.018979  p :     3.158292
      px      :     1.048734
      py      :     1.090578
      dz2     :     0.008582  d :     0.027153
      dxz     :     0.005945
      dyz     :     0.001780
      dx2y2   :     0.004487
      dxy     :     0.006359

  1 C s       :     3.207327  s :     3.207327
      pz      :     1.023751  p :     2.997104
      px      :     0.958005
      py      :     1.015349
      dz2     :     0.008760  d :     0.037207
      dxz     :     0.009875
      dyz     :     0.002557
      dx2y2   :     0.008056
      dxy     :     0.007959

  2 C s       :     3.227934  s :     3.227934
      pz      :     1.021573  p :     3.067656
      px      :     0.990749
      py      :     1.055334
      dz2     :     0.008178  d :     0.036848
      dxz     :     0.010516
      dyz     :     0.002816
      dx2y2   :     0.007360
      dxy     :     0.007978

  3 C s       :     3.038508  s :     3.038508
      pz      :     1.054145  p :     2.902237
      px      :     0.955883
      py      :     0.892208
      dz2     :     0.008977  d :     0.045688
      dxz     :     0.012059
      dyz     :     0.005110
      dx2y2   :     0.007354
      dxy     :     0.012189

  4 C s       :     3.286025  s :     3.286025
      pz      :     1.062441  p :     3.064682
      px      :     0.979378
      py      :     1.022863
      dz2     :     0.008438  d :     0.035950
      dxz     :     0.007483
      dyz     :     0.004049
      dx2y2   :     0.006444
      dxy     :     0.009535

  5 C s       :     3.281771  s :     3.281771
      pz      :     1.052787  p :     3.038691
      px      :     1.035974
      py      :     0.949930
      dz2     :     0.007506  d :     0.035098
      dxz     :     0.005787
      dyz     :     0.006224
      dx2y2   :     0.008427
      dxy     :     0.007155

  6 C s       :     3.263772  s :     3.263772
      pz      :     1.045177  p :     3.039373
      px      :     1.068292
      py      :     0.925903
      dz2     :     0.008285  d :     0.035264
      dxz     :     0.004841
      dyz     :     0.006348
      dx2y2   :     0.009310
      dxy     :     0.006481

  7 C s       :     3.296539  s :     3.296539
      pz      :     1.043899  p :     3.046321
      px      :     0.963200
      py      :     1.039222
      dz2     :     0.008201  d :     0.036218
      dxz     :     0.007962
      dyz     :     0.004117
      dx2y2   :     0.007107
      dxy     :     0.008831

  8 H s       :     0.822332  s :     0.822332
      pz      :     0.009713  p :     0.018463
      px      :     0.004923
      py      :     0.003827

  9 H s       :     0.827380  s :     0.827380
      pz      :     0.003679  p :     0.018240
      px      :     0.004248
      py      :     0.010313

 10 H s       :     0.825811  s :     0.825811
      pz      :     0.003729  p :     0.018331
      px      :     0.008471
      py      :     0.006131

 11 H s       :     0.838606  s :     0.838606
      pz      :     0.003624  p :     0.018150
      px      :     0.004246
      py      :     0.010280

 12 H s       :     0.832351  s :     0.832351
      pz      :     0.009250  p :     0.017871
      px      :     0.005035
      py      :     0.003586

 13 H s       :     0.824168  s :     0.824168
      pz      :     0.008656  p :     0.018084
      px      :     0.005660
      py      :     0.003768

 14 H s       :     0.830002  s :     0.830002
      pz      :     0.003553  p :     0.017851
      px      :     0.004170
      py      :     0.010128

 15 H s       :     0.814778  s :     0.814778
      pz      :     0.008697  p :     0.017995
      px      :     0.005718
      py      :     0.003581

 16 H s       :     0.817127  s :     0.817127
      pz      :     0.009837  p :     0.017934
      px      :     0.004355
      py      :     0.003742

 17 H s       :     0.818925  s :     0.818925
      pz      :     0.004220  p :     0.018472
      px      :     0.005916
      py      :     0.008336

 18 H s       :     0.821757  s :     0.821757
      pz      :     0.004526  p :     0.018282
      px      :     0.008726
      py      :     0.005030

 19 H s       :     0.813010  s :     0.813010
      pz      :     0.009680  p :     0.018129
      px      :     0.003908
      py      :     0.004541

 20 H s       :     0.822688  s :     0.822688
      pz      :     0.004199  p :     0.018278
      px      :     0.009862
      py      :     0.004216

 21 H s       :     0.813279  s :     0.813279
      pz      :     0.009923  p :     0.018082
      px      :     0.003824
      py      :     0.004335

 22 H s       :     0.815072  s :     0.815072
      pz      :     0.009672  p :     0.017903
      px      :     0.004682
      py      :     0.003549

 23 H s       :     0.822918  s :     0.822918
      pz      :     0.004248  p :     0.018195
      px      :     0.004451
      py      :     0.009495


------------------------
MULLIKEN OVERLAP CHARGES
------------------------
B(  0-C ,  1-C ) :   0.4236 B(  0-C ,  2-C ) :  -0.2173 B(  0-C ,  8-H ) :   0.8599 
B(  0-C ,  9-H ) :   0.8371 B(  0-C , 10-H ) :   0.7982 B(  0-C , 11-H ) :  -0.0819 
B(  0-C , 12-H ) :  -0.0538 B(  1-C ,  2-C ) :   0.4357 B(  1-C ,  3-C ) :  -0.1910 
B(  1-C ,  8-H ) :  -0.0993 B(  1-C ,  9-H ) :  -0.0853 B(  1-C , 10-H ) :  -0.0776 
B(  1-C , 11-H ) :   0.9000 B(  1-C , 12-H ) :   0.8308 B(  1-C , 13-H ) :  -0.0737 
B(  1-C , 14-H ) :  -0.0511 B(  2-C ,  3-C ) :   0.4499 B(  2-C ,  4-C ) :  -0.2164 
B(  2-C ,  5-C ) :   0.0543 B(  2-C ,  7-C ) :  -0.1870 B(  2-C , 11-H ) :  -0.1120 
B(  2-C , 12-H ) :  -0.1017 B(  2-C , 13-H ) :   0.8247 B(  2-C , 14-H ) :   0.8480 
B(  2-C , 15-H ) :  -0.0798 B(  3-C ,  4-C ) :   0.3299 B(  3-C ,  5-C ) :  -0.2255 
B(  3-C ,  6-C ) :  -0.2606 B(  3-C ,  7-C ) :   0.4581 B(  3-C , 13-H ) :  -0.0680 
B(  3-C , 14-H ) :  -0.1288 B(  3-C , 15-H ) :   0.8341 B(  3-C , 16-H ) :  -0.0851 
B(  3-C , 17-H ) :  -0.0763 B(  3-C , 22-H ) :  -0.1022 B(  3-C , 23-H ) :  -0.0792 
B(  4-C ,  5-C ) :   0.2623 B(  4-C ,  6-C ) :  -0.0651 B(  4-C ,  7-C ) :  -0.3753 
B(  4-C , 15-H ) :  -0.0787 B(  4-C , 16-H ) :   0.8029 B(  4-C , 17-H ) :   0.8052 
B(  4-C , 18-H ) :  -0.0552 B(  4-C , 19-H ) :  -0.0829 B(  5-C ,  6-C ) :   0.4413 
B(  5-C ,  7-C ) :  -0.0823 B(  5-C , 17-H ) :  -0.0530 B(  5-C , 18-H ) :   0.7956 
B(  5-C , 19-H ) :   0.8892 B(  5-C , 20-H ) :  -0.0513 B(  5-C , 21-H ) :  -0.0927 
B(  6-C ,  7-C ) :   0.4131 B(  6-C , 19-H ) :  -0.0968 B(  6-C , 20-H ) :   0.8046 
B(  6-C , 21-H ) :   0.8943 B(  6-C , 22-H ) :  -0.0780 B(  7-C , 20-H ) :  -0.0640 
B(  7-C , 21-H ) :  -0.0919 B(  7-C , 22-H ) :   0.8553 B(  7-C , 23-H ) :   0.8040 



                     *******************************
                     * LOEWDIN POPULATION ANALYSIS *
                     *******************************

----------------------
LOEWDIN ATOMIC CHARGES
----------------------
   0 C :   -0.435380
   1 C :   -0.317687
   2 C :   -0.298846
   3 C :   -0.229488
   4 C :   -0.302533
   5 C :   -0.314007
   6 C :   -0.313822
   7 C :   -0.302260
   8 H :    0.150753
   9 H :    0.152308
  10 H :    0.152181
  11 H :    0.153245
  12 H :    0.153292
  13 H :    0.163110
  14 H :    0.159542
  15 H :    0.162455
  16 H :    0.159509
  17 H :    0.160343
  18 H :    0.157759
  19 H :    0.156912
  20 H :    0.157042
  21 H :    0.156697
  22 H :    0.158888
  23 H :    0.159987

-------------------------------
LOEWDIN REDUCED ORBITAL CHARGES
-------------------------------
  0 C s       :     2.973879  s :     2.973879
      pz      :     1.123632  p :     3.398314
      px      :     1.119814
      py      :     1.154868
      dz2     :     0.019708  d :     0.063188
      dxz     :     0.014292
      dyz     :     0.003520
      dx2y2   :     0.010631
      dxy     :     0.015036

  1 C s       :     2.936787  s :     2.936787
      pz      :     1.109065  p :     3.300836
      px      :     1.071270
      py      :     1.120501
      dz2     :     0.019154  d :     0.080064
      dxz     :     0.021891
      dyz     :     0.004617
      dx2y2   :     0.016817
      dxy     :     0.017585

  2 C s       :     2.929943  s :     2.929943
      pz      :     1.105096  p :     3.288959
      px      :     1.066643
      py      :     1.117220
      dz2     :     0.018037  d :     0.079944
      dxz     :     0.023472
      dyz     :     0.005149
      dx2y2   :     0.015442
      dxy     :     0.017844

  3 C s       :     2.903640  s :     2.903640
      pz      :     1.106812  p :     3.230954
      px      :     1.066886
      py      :     1.057256
      dz2     :     0.019109  d :     0.094893
      dxz     :     0.026378
      dyz     :     0.008721
      dx2y2   :     0.013595
      dxy     :     0.027091

  4 C s       :     2.933687  s :     2.933687
      pz      :     1.122422  p :     3.290188
      px      :     1.074449
      py      :     1.093317
      dz2     :     0.018958  d :     0.078658
      dxz     :     0.016792
      dyz     :     0.008112
      dx2y2   :     0.013155
      dxy     :     0.021641

  5 C s       :     2.937028  s :     2.937028
      pz      :     1.127202  p :     3.300691
      px      :     1.103637
      py      :     1.069852
      dz2     :     0.016658  d :     0.076289
      dxz     :     0.013542
      dyz     :     0.012555
      dx2y2   :     0.019286
      dxy     :     0.014247

  6 C s       :     2.936558  s :     2.936558
      pz      :     1.125906  p :     3.300491
      px      :     1.114104
      py      :     1.060482
      dz2     :     0.018746  d :     0.076772
      dxz     :     0.011022
      dyz     :     0.012826
      dx2y2   :     0.021341
      dxy     :     0.012838

  7 C s       :     2.936087  s :     2.936087
      pz      :     1.121153  p :     3.287033
      px      :     1.067068
      py      :     1.098812
      dz2     :     0.018222  d :     0.079140
      dxz     :     0.017690
      dyz     :     0.008657
      dx2y2   :     0.014072
      dxy     :     0.020499

  8 H s       :     0.804811  s :     0.804811
      pz      :     0.024146  p :     0.044437
      px      :     0.011742
      py      :     0.008548

  9 H s       :     0.804006  s :     0.804006
      pz      :     0.008322  p :     0.043686
      px      :     0.009662
      py      :     0.025703

 10 H s       :     0.803989  s :     0.803989
      pz      :     0.008478  p :     0.043830
      px      :     0.020659
      py      :     0.014694

 11 H s       :     0.802863  s :     0.802863
      pz      :     0.008500  p :     0.043892
      px      :     0.010136
      py      :     0.025256

 12 H s       :     0.803405  s :     0.803405
      pz      :     0.022736  p :     0.043302
      px      :     0.012184
      py      :     0.008382

 13 H s       :     0.792612  s :     0.792612
      pz      :     0.021530  p :     0.044278
      px      :     0.013801
      py      :     0.008947

 14 H s       :     0.796968  s :     0.796968
      pz      :     0.008388  p :     0.043490
      px      :     0.009958
      py      :     0.025144

 15 H s       :     0.792937  s :     0.792937
      pz      :     0.021463  p :     0.044608
      px      :     0.014280
      py      :     0.008865

 16 H s       :     0.796319  s :     0.796319
      pz      :     0.024488  p :     0.044172
      px      :     0.010455
      py      :     0.009229

 17 H s       :     0.794622  s :     0.794622
      pz      :     0.010119  p :     0.045035
      px      :     0.014279
      py      :     0.020637

 18 H s       :     0.797896  s :     0.797896
      pz      :     0.010858  p :     0.044345
      px      :     0.021376
      py      :     0.012112

 19 H s       :     0.798683  s :     0.798683
      pz      :     0.024051  p :     0.044405
      px      :     0.009362
      py      :     0.010993

 20 H s       :     0.798613  s :     0.798613
      pz      :     0.010035  p :     0.044345
      px      :     0.024293
      py      :     0.010017

 21 H s       :     0.798911  s :     0.798911
      pz      :     0.024736  p :     0.044392
      px      :     0.009247
      py      :     0.010408

 22 H s       :     0.797039  s :     0.797039
      pz      :     0.024095  p :     0.044073
      px      :     0.011350
      py      :     0.008627

 23 H s       :     0.795702  s :     0.795702
      pz      :     0.010128  p :     0.044310
      px      :     0.010608
      py      :     0.023575


---------------------------------
LOEWDIN BOND ORDERS (THRESH 0.050000)
---------------------------------
B(  0-C ,  1-C ) :   1.1409 B(  0-C ,  2-C ) :   0.0644 B(  0-C ,  8-H ) :   0.9279 
B(  0-C ,  9-H ) :   0.9294 B(  0-C , 10-H ) :   0.9303 B(  1-C ,  2-C ) :   1.1079 
B(  1-C ,  3-C ) :   0.0603 B(  1-C , 11-H ) :   0.8916 B(  1-C , 12-H ) :   0.8940 
B(  2-C ,  3-C ) :   1.0642 B(  2-C ,  4-C ) :   0.0582 B(  2-C ,  7-C ) :   0.0700 
B(  2-C , 13-H ) :   0.8770 B(  2-C , 14-H ) :   0.8824 B(  3-C ,  4-C ) :   1.0651 
B(  3-C ,  5-C ) :   0.0672 B(  3-C ,  6-C ) :   0.0689 B(  3-C ,  7-C ) :   1.0661 
B(  3-C , 15-H ) :   0.8563 B(  4-C ,  5-C ) :   1.0888 B(  4-C ,  6-C ) :   0.0639 
B(  4-C ,  7-C ) :   0.0772 B(  4-C , 16-H ) :   0.8902 B(  4-C , 17-H ) :   0.8903 
B(  5-C ,  6-C ) :   1.0849 B(  5-C ,  7-C ) :   0.0647 B(  5-C , 18-H ) :   0.9032 
B(  5-C , 19-H ) :   0.9018 B(  6-C ,  7-C ) :   1.0911 B(  6-C , 20-H ) :   0.9032 
B(  6-C , 21-H ) :   0.9004 B(  7-C , 22-H ) :   0.8889 B(  7-C , 23-H ) :   0.8934 


------------------------------------------
LOEWDIN REDUCED ORBITAL POPULATIONS PER MO
-------------------------------------------
THRESHOLD FOR PRINTING IS 0.1%%
                      0         1         2         3         4         5   
                 -10.01638 -10.01408 -10.01103 -10.01085 -10.01046 -10.00957
                   2.00000   2.00000   2.00000   2.00000   2.00000   2.00000
                  --------  --------  --------  --------  --------  --------
 1 C  s               0.0      99.6       0.0       0.0       0.0       0.0
 2 C  s               0.0       0.0       0.0       0.0      99.6       0.0
 3 C  s              99.6       0.0       0.0       0.0       0.0       0.0
 4 C  s               0.0       0.0       0.1       0.0       0.0       0.1
 5 C  s               0.0       0.0      88.3      11.2       0.0       0.0
 6 C  s               0.0       0.0      11.2      88.2       0.0       0.3
 7 C  s               0.0       0.0       0.0       0.2       0.0      99.4

                      6         7         8         9        10        11   
                 -10.00943 -10.00600  -0.79926  -0.73984  -0.67580  -0.66455
                   2.00000   2.00000   2.00000   2.00000   2.00000   2.00000
                  --------  --------  --------  --------  --------  --------
 0 C  s               0.0      99.7       0.6      14.2      12.2       0.4
 0 C  pz              0.0       0.0       0.1       1.3       0.1       0.0
 0 C  px              0.0       0.0       0.3       1.3       0.0       0.0
 1 C  s               0.0       0.0       2.2      23.6       3.5       0.1
 1 C  pz              0.0       0.0       0.1       0.5       0.7       0.0
 1 C  px              0.0       0.0       0.5       0.0       3.8       0.2
 1 C  py              0.0       0.0       0.3       0.8       0.2       0.0
 2 C  s               0.0       0.0       6.6      13.0       4.6       0.0
 2 C  pz              0.0       0.0       1.1       0.0       0.8       0.0
 2 C  px              0.0       0.0       0.6       2.6       2.7       0.0
 2 C  py              0.0       0.0       0.1       0.9       0.4       0.4
 3 C  s               0.0       0.0      16.7       0.5      11.5       0.2
 3 C  pz              0.0       0.0       0.6       0.8       0.1       0.0
 3 C  px              0.0       0.0       1.4       4.2       0.4       0.1
 3 C  py              0.1       0.0       0.0       0.0       0.4       9.2
 3 C  dxy             0.0       0.0       0.0       0.0       0.0       0.3
 4 C  s              99.5       0.0      12.0       0.9       0.0      18.8
 4 C  pz              0.0       0.0       0.4       0.1       0.8       0.1
 4 C  px              0.0       0.0       0.0       1.3       4.0       0.1
 4 C  py              0.0       0.0       2.5       0.0       0.9       0.7
 5 C  s               0.2       0.0       9.7       4.3      11.7       5.1
 5 C  pz              0.0       0.0       0.5       0.0       0.1       0.9
 5 C  px              0.0       0.0       1.1       0.0       0.5       1.7
 5 C  py              0.0       0.0       1.0       0.4       0.4       4.5
 5 C  dx2y2           0.0       0.0       0.0       0.0       0.0       0.1
 6 C  s               0.0       0.0       9.7       4.6       7.6       9.2
 6 C  pz              0.0       0.0       0.6       0.1       0.2       0.4
 6 C  px              0.0       0.0       1.5       0.0       0.6       0.4
 6 C  py              0.0       0.0       0.5       0.3       1.8       4.5
 7 C  s               0.1       0.0      12.0       1.3       1.3      16.3
 7 C  pz              0.0       0.0       0.4       0.1       0.6       0.4
 7 C  px              0.0       0.0       0.1       1.0       4.3       0.9
 7 C  py              0.0       0.0       2.6       0.1       0.1       0.7
 7 C  dxy             0.0       0.0       0.0       0.0       0.1       0.0
 8 H  s               0.0       0.0       0.1       2.0       2.2       0.1
 8 H  pz              0.0       0.0       0.0       0.2       0.2       0.0
 9 H  s               0.0       0.0       0.1       2.0       2.3       0.1
 9 H  py              0.0       0.0       0.0       0.2       0.2       0.0
10 H  s               0.0       0.0       0.1       2.0       2.6       0.1
10 H  px              0.0       0.0       0.0       0.1       0.1       0.0
11 H  s               0.0       0.0       0.3       3.3       0.7       0.0
11 H  py              0.0       0.0       0.0       0.3       0.0       0.0
12 H  s               0.0       0.0       0.2       3.4       0.8       0.0
12 H  pz              0.0       0.0       0.0       0.2       0.1       0.0
13 H  s               0.0       0.0       0.8       1.7       0.8       0.0
13 H  pz              0.0       0.0       0.0       0.1       0.1       0.0
14 H  s               0.0       0.0       0.7       1.9       0.9       0.0
14 H  py              0.0       0.0       0.1       0.2       0.1       0.0
15 H  s               0.0       0.0       1.7       0.1       2.2       0.0
15 H  pz              0.0       0.0       0.1       0.0       0.2       0.0
16 H  s               0.0       0.0       1.2       0.1       0.0       3.8
16 H  pz              0.0       0.0       0.1       0.0       0.0       0.3
17 H  s               0.0       0.0       1.2       0.1       0.0       4.3
17 H  px              0.0       0.0       0.0       0.0       0.0       0.1
17 H  py              0.0       0.0       0.1       0.0       0.0       0.2
18 H  s               0.0       0.0       1.0       0.6       2.4       1.1
18 H  px              0.0       0.0       0.1       0.0       0.1       0.1
19 H  s               0.0       0.0       1.0       0.6       2.3       1.1
19 H  pz              0.0       0.0       0.1       0.0       0.2       0.1
20 H  s               0.0       0.0       1.0       0.6       1.6       2.0
20 H  px              0.0       0.0       0.1       0.0       0.1       0.2
21 H  s               0.0       0.0       1.0       0.6       1.4       2.0
21 H  pz              0.0       0.0       0.1       0.0       0.1       0.2
22 H  s               0.0       0.0       1.3       0.2       0.2       3.3
22 H  pz              0.0       0.0       0.1       0.0       0.0       0.3
23 H  s               0.0       0.0       1.2       0.1       0.3       3.7
23 H  py              0.0       0.0       0.1       0.0       0.0       0.3

                     12        13        14        15        16        17   
                  -0.62250  -0.55031  -0.51826  -0.49403  -0.44927  -0.43653
                   2.00000   2.00000   2.00000   2.00000   2.00000   2.00000
                  --------  --------  --------  --------  --------  --------
 0 C  s              13.3       6.0       0.0       0.8       0.1       0.0
 0 C  pz              0.7       4.4       0.2       0.6       0.1       0.9
 0 C  px              0.7       1.8       0.0       1.2       1.4       0.5
 0 C  py              0.0       1.1       0.0       0.9       1.1       1.4
 0 C  dxz             0.0       0.1       0.0       0.0       0.0       0.0
 1 C  s               1.1      12.8       0.2       2.0       0.0       0.0
 1 C  pz              3.0       3.4       0.3       0.1       0.6       2.4
 1 C  px              6.0       0.0       0.1       0.2       0.5       0.9
 1 C  py              0.4       3.5       0.0       3.1       2.9       3.9
 1 C  dxy             0.1       0.0       0.0       0.0       0.0       0.0
 2 C  s              12.3       2.9       0.0       3.8       0.3       0.3
 2 C  pz              2.0       0.7       0.3       7.0       1.9       2.3
 2 C  px              0.3       3.4       0.2       0.0       5.4       1.4
 2 C  py              0.0       3.9       0.6       2.0       1.4       1.2
 2 C  dxz             0.0       0.0       0.0       0.1       0.0       0.0
 2 C  dxy             0.0       0.1       0.0       0.0       0.0       0.0
 3 C  s               2.3       1.7       0.4       9.0       0.2       0.1
 3 C  pz              4.2       1.2       0.0       4.3       9.0       0.4
 3 C  px              2.7       3.0       0.5       1.2       6.8       4.5
 3 C  py              0.0       0.7       6.5       0.1       0.2       0.0
 3 C  dxy             0.0       0.0       0.1       0.0       0.0       0.0
 4 C  s               3.1       2.7       2.1       4.8       0.3       0.2
 4 C  pz              1.4       0.9       1.7       0.1       7.0       3.1
 4 C  px              0.6       0.0       5.3       0.5       0.2       4.2
 4 C  py              0.2       0.6       0.0       6.4       3.5       8.7
 4 C  dxy             0.0       0.0       0.0       0.1       0.0       0.0
 5 C  s               3.2       1.6       8.5       1.2       0.2       0.2
 5 C  pz              1.1       1.3       0.2       1.8       1.2       8.0
 5 C  px              0.9       0.6       0.6       2.2       8.7       0.3
 5 C  py              0.4       0.0       6.3       0.7       1.5       4.3
 6 C  s               3.2       0.0      10.6       0.0       0.4       0.1
 6 C  pz              1.0       1.1       2.1       0.6       0.6       6.0
 6 C  px              0.6       0.1       2.2       0.6      11.0       0.1
 6 C  py              0.8       1.4       2.8       3.0       0.6       3.2
 7 C  s               3.2       2.6       5.8       1.6       0.2       0.6
 7 C  pz              1.5       0.6       3.1       0.4       4.4       1.4
 7 C  px              0.7       1.2       2.3       2.0       0.5       0.8
 7 C  py              0.0       0.4       1.9       3.7       3.1      11.6
 7 C  dxz             0.0       0.0       0.1       0.0       0.0       0.0
 7 C  dxy             0.0       0.0       0.0       0.1       0.0       0.0
 8 H  s               3.7       3.3       0.1       0.2       0.0       0.5
 8 H  pz              0.2       0.1       0.0       0.0       0.0       0.0
 9 H  s               3.3       3.2       0.0       1.2       0.0       0.6
 9 H  py              0.3       0.2       0.0       0.1       0.0       0.0
10 H  s               3.8       2.2       0.0       0.4       0.9       0.0
10 H  px              0.2       0.1       0.0       0.0       0.0       0.0
10 H  py              0.1       0.1       0.0       0.0       0.0       0.0
11 H  s               0.2       6.3       0.0       2.1       0.6       1.9
11 H  py              0.0       0.4       0.0       0.1       0.0       0.0
12 H  s               0.4       6.2       0.2       0.6       0.3       1.0
12 H  pz              0.0       0.3       0.0       0.0       0.0       0.0
12 H  px              0.0       0.1       0.0       0.0       0.0       0.0
13 H  s               3.8       0.9       0.0       4.0       1.3       0.2
13 H  pz              0.2       0.1       0.0       0.1       0.1       0.0
13 H  px              0.1       0.0       0.0       0.1       0.0       0.0
14 H  s               3.0       1.8       0.2       3.6       1.6       1.1
14 H  py              0.2       0.1       0.0       0.2       0.1       0.1
15 H  s               0.9       0.7       0.2       7.7       4.5       0.2
15 H  pz              0.0       0.1       0.0       0.3       0.1       0.0
15 H  px              0.0       0.0       0.0       0.1       0.0       0.0
16 H  s               1.1       1.6       1.0       3.0       3.3       0.6
16 H  pz              0.1       0.1       0.0       0.2       0.1       0.0
17 H  s               0.6       1.3       1.4       3.9       0.3       5.9
17 H  px              0.0       0.0       0.0       0.1       0.0       0.0
17 H  py              0.0       0.0       0.1       0.1       0.0       0.1
18 H  s               0.9       0.6       5.3       0.6       3.8       0.0
18 H  px              0.0       0.0       0.3       0.0       0.1       0.0
19 H  s               1.1       1.0       4.6       0.7       0.1       4.3
19 H  pz              0.1       0.0       0.3       0.0       0.0       0.1
20 H  s               0.9       0.0       6.0       0.0       4.6       0.0
20 H  px              0.1       0.0       0.3       0.0       0.1       0.0
21 H  s               1.0       0.1       6.3       0.0       0.0       2.7
21 H  pz              0.1       0.0       0.4       0.0       0.0       0.1
22 H  s               1.1       1.7       3.4       0.8       1.9       0.0
22 H  pz              0.1       0.1       0.2       0.1       0.0       0.0
23 H  s               0.6       0.7       3.5       2.2       0.2       6.0
23 H  py              0.0       0.0       0.2       0.1       0.0       0.2

                     18        19        20        21        22        23   
                  -0.40774  -0.38957  -0.38058  -0.36261  -0.34632  -0.31578
                   2.00000   2.00000   2.00000   2.00000   2.00000   2.00000
                  --------  --------  --------  --------  --------  --------
 0 C  s               0.1       0.1       0.0       0.0       0.0       0.2
 0 C  pz             10.0       0.1       0.0      11.2       0.7      16.3
 0 C  px              1.2      16.7       2.8       1.9       0.2       1.3
 0 C  py              3.1       8.8       7.5       0.4      17.7       1.8
 0 C  dz2             0.0       0.0       0.0       0.0       0.0       0.2
 0 C  dxz             0.1       0.0       0.0       0.1       0.0       0.2
 0 C  dx2y2           0.0       0.0       0.0       0.0       0.1       0.1
 0 C  dxy             0.0       0.1       0.0       0.0       0.1       0.0
 1 C  s               0.1       0.4       0.1       0.0       0.0       0.2
 1 C  pz              5.3       6.7       4.3       0.2       2.2      12.7
 1 C  px             10.2       1.3       0.5       3.0       2.8       0.3
 1 C  py              4.5       7.3       2.8       0.1       0.0       2.1
 1 C  dz2             0.0       0.0       0.0       0.0       0.0       0.2
 1 C  dxz             0.0       0.0       0.0       0.0       0.0       0.2
 1 C  dx2y2           0.0       0.0       0.0       0.0       0.0       0.1
 2 C  s               0.7       0.2       0.0       0.1       0.2       0.8
 2 C  pz              0.0       5.6       2.8       9.3       0.0       0.6
 2 C  px              1.3       8.3       0.1       1.2       1.5       0.1
 2 C  py              6.7       0.1       5.8       0.1      13.2       4.5
 2 C  dxz             0.0       0.0       0.0       0.2       0.0       0.1
 3 C  s               0.3       0.5       0.1       0.6       0.3       0.1
 3 C  pz              1.4       0.2       2.0       8.9       0.7       0.4
 3 C  px              0.0       0.1       0.0       1.4       0.0       0.3
 3 C  py              1.4       0.2       3.6       0.1       0.3       4.0
 3 C  dxz             0.1       0.0       0.0       0.0       0.0       0.2
 3 C  dyz             0.0       0.0       0.1       0.0       0.0       0.0
 4 C  s               0.3       0.1       0.1       0.0       0.1       0.0
 4 C  pz              0.5       2.4       3.3       9.6       1.5       6.1
 4 C  px              0.0       0.1       7.2       1.1       0.3       0.2
 4 C  py              0.4       0.2       0.1       0.6       0.6       2.6
 4 C  dz2             0.0       0.0       0.0       0.1       0.0       0.0
 4 C  dxy             0.0       0.0       0.0       0.0       0.1       0.1
 5 C  s               0.0       0.1       0.0       0.0       0.0       0.0
 5 C  pz              2.5       0.1       9.6       3.2       3.6       0.8
 5 C  px              0.7       5.2       0.8       0.2       5.6       0.7
 5 C  py              0.1       0.6       0.0       0.5       0.7       0.0
 6 C  s               0.1       0.1       0.0       0.0       0.1       0.1
 6 C  pz              9.8       0.1       0.1      10.1       0.3       2.2
 6 C  px              1.1       4.9       1.4       3.6       0.2       1.4
 6 C  py              0.3       0.1       0.0       0.5       0.6       0.0
 7 C  s               0.1       0.1       0.1       0.0       0.0       0.0
 7 C  pz              2.5       0.6      11.5       0.9       6.2       0.8
 7 C  px              4.9       1.0       3.3       0.6       1.7       1.6
 7 C  py              0.3       0.2       0.0       0.1       1.6       1.4
 8 H  s               4.9       0.5       0.3       6.6       0.0       9.2
 8 H  pz              0.1       0.0       0.0       0.1       0.0       0.0
 8 H  py              0.0       0.1       0.0       0.0       0.1       0.1
 9 H  s               1.4       0.7       4.3       0.6       8.5       0.1
 9 H  pz              0.1       0.0       0.0       0.1       0.0       0.1
 9 H  px              0.0       0.2       0.0       0.0       0.0       0.0
 9 H  py              0.0       0.0       0.1       0.0       0.1       0.0
10 H  s               0.0      11.1       0.0       0.4       2.3       2.9
10 H  pz              0.1       0.0       0.0       0.1       0.0       0.1
10 H  px              0.0       0.2       0.0       0.0       0.1       0.0
11 H  s               2.8       0.7       1.4       0.2       0.0       0.6
11 H  pz              0.0       0.0       0.0       0.0       0.0       0.1
11 H  py              0.1       0.0       0.0       0.0       0.0       0.0
12 H  s               5.6       1.9       0.7       0.1       0.3       7.0
12 H  pz              0.2       0.0       0.0       0.0       0.0       0.0
13 H  s               1.3       5.3       1.4       2.7       0.5       0.2
13 H  pz              0.1       0.1       0.0       0.0       0.0       0.0
14 H  s               1.5       0.0       1.7       0.0       8.5       1.2
14 H  py              0.0       0.0       0.0       0.0       0.2       0.0
15 H  s               0.7       0.4       0.5       1.2       0.0       0.8
16 H  s               0.5       0.8       3.1       4.5       0.4       2.8
16 H  pz              0.0       0.0       0.1       0.0       0.0       0.0
17 H  s               0.1       0.0       0.8       1.9       1.2       3.2
18 H  s               0.5       2.2       1.2       0.7       5.1       0.1
19 H  s               0.9       0.1       4.1       1.1       1.6       0.3
20 H  s               0.7       1.8       0.5       3.8       0.1       2.0
21 H  s               4.3       0.0       0.1       4.4       0.1       1.0
21 H  pz              0.1       0.0       0.0       0.0       0.0       0.0
22 H  s               2.3       0.0       6.7       0.2       3.1       1.6
22 H  pz              0.1       0.0       0.1       0.0       0.0       0.0
23 H  s               0.7       0.0       1.0       0.0       2.9       0.1

                     24        25        26        27        28        29   
                  -0.30864  -0.30475  -0.29543  -0.29238  -0.27673  -0.27417
                   2.00000   2.00000   2.00000   2.00000   2.00000   2.00000
                  --------  --------  --------  --------  --------  --------
 0 C  s               0.4       0.1       0.0       0.0       0.1       0.0
 0 C  pz              2.7       0.3       0.2       0.1       0.3       2.3
 0 C  px             12.9       7.0       0.4       0.6       0.5       2.9
 0 C  py              2.8       6.6       0.6       1.1       1.3       0.7
 0 C  dz2             0.0       0.3       0.0       0.1       0.0       0.0
 0 C  dxy             0.3       0.0       0.0       0.0       0.0       0.1
 1 C  s               0.0       0.1       0.0       0.0       0.1       0.1
 1 C  pz              5.9       0.2       0.1       0.1       0.0       0.3
 1 C  px              5.5       5.3       0.3       0.8       0.3       7.5
 1 C  py              1.1       8.8       0.8       2.1       5.5       1.4
 1 C  dz2             0.0       0.3       0.0       0.0       0.0       0.1
 1 C  dxz             0.1       0.0       0.0       0.0       0.0       0.0
 1 C  dx2y2           0.0       0.2       0.0       0.0       0.2       0.0
 1 C  dxy             0.2       0.1       0.0       0.0       0.0       0.1
 2 C  s               0.2       0.0       0.0       0.0       0.1       0.1
 2 C  pz              2.2       1.2       0.1       0.3       0.0       1.7
 2 C  px              7.7       0.1       0.1       0.1       0.4      11.2
 2 C  py              1.3       0.7       0.0       0.0       5.2       0.0
 2 C  dz2             0.0       0.0       0.0       0.0       0.1       0.5
 2 C  dxz             0.1       0.0       0.0       0.0       0.0       0.2
 2 C  dx2y2           0.0       0.2       0.0       0.0       0.2       0.0
 3 C  s               0.0       0.5       0.1       0.0       0.0       0.4
 3 C  pz              2.3       0.0       0.2       0.0       0.0       2.4
 3 C  px              7.4       0.6       0.1       0.2       0.8      13.9
 3 C  py              1.1       3.8       3.0       1.4       6.1       0.0
 3 C  dz2             0.0       0.0       0.0       0.0       0.0       0.5
 3 C  dxz             0.1       0.0       0.0       0.0       0.0       0.2
 3 C  dyz             0.0       0.0       0.0       0.1       0.1       0.0
 3 C  dx2y2           0.1       0.0       0.2       0.0       0.0       0.0
 3 C  dxy             0.0       0.1       0.1       0.1       0.3       0.0
 4 C  s               0.0       0.2       0.6       0.4       0.1       0.2
 4 C  pz              0.9       0.9       0.1       3.7       4.2       0.3
 4 C  px              1.3       0.2       2.4      18.3       0.6       2.4
 4 C  py              0.2       6.3       2.1       2.8       9.8       1.1
 4 C  dz2             0.0       0.0       0.0       0.1       0.1       0.1
 4 C  dxz             0.1       0.0       0.0       0.1       0.0       0.0
 4 C  dx2y2           0.1       0.0       0.0       0.1       0.0       0.1
 4 C  dxy             0.0       0.3       0.0       0.0       0.2       0.0
 5 C  s               0.5       0.0       0.4       0.1       0.0       0.3
 5 C  pz              1.6       0.2       0.1       3.7       8.5       0.0
 5 C  px              2.2       0.3       0.0      16.9       0.3       3.2
 5 C  py              0.2       8.6      19.0       0.9       0.9       1.8
[...]
 5 C  px              0.1       2.7       0.0       0.0       0.0       0.0
 5 C  dz2             0.1       3.5       0.0       0.0       0.0       0.0
 5 C  dxz             0.1       0.3       0.0       0.0       0.0       0.0
 5 C  dyz             0.2       2.3       0.0       0.0       0.0       0.0
 5 C  dx2y2           0.0       1.4       0.0       0.0       0.0       0.0
 5 C  dxy             0.0       2.1       0.0       0.0       0.0       0.0
 6 C  s               0.0       0.0      10.5       7.9      22.6      11.1
 6 C  pz              0.3       3.2       0.0       0.0       0.0       0.0
 6 C  px              0.2       2.6       0.0       0.0       0.0       0.0
 6 C  dz2             0.3       4.0       0.0       0.0       0.0       0.0
 6 C  dxz             0.1       0.2       0.0       0.0       0.0       0.0
 6 C  dyz             0.4       1.2       0.0       0.0       0.0       0.0
 6 C  dx2y2           0.7       2.3       0.0       0.0       0.0       0.0
 6 C  dxy             0.1       0.8       0.0       0.0       0.0       0.0
 7 C  s               0.3       0.0      12.5       2.3      12.7       1.5
 7 C  pz              2.0       1.2       0.0       0.0       0.0       0.0
 7 C  px              1.8       0.6       0.0       0.0       0.0       0.0
 7 C  py              0.1       0.9       0.0       0.0       0.0       0.0
 7 C  dz2             4.8       0.6       0.0       0.0       0.0       0.0
 7 C  dxz             0.1       0.1       0.0       0.0       0.0       0.0
 7 C  dyz             1.3       0.8       0.0       0.0       0.0       0.0
 7 C  dx2y2           0.9       0.8       0.0       0.0       0.0       0.0
 7 C  dxy             0.0       0.9       0.0       0.0       0.0       0.0
11 H  px              0.1       0.0       0.0       0.0       0.0       0.0
11 H  py              0.1       0.0       0.0       0.0       0.0       0.0
13 H  s               1.1       0.1       0.0       0.0       0.0       0.0
13 H  pz              2.3       0.2       0.0       0.0       0.0       0.0
13 H  px              0.5       0.1       0.0       0.0       0.0       0.0
13 H  py              0.2       0.2       0.0       0.0       0.0       0.0
14 H  s               0.0       0.2       0.0       0.0       0.0       0.0
14 H  py              0.0       0.2       0.0       0.0       0.0       0.0
15 H  s               6.2       0.1       0.0       0.0       0.0       0.0
15 H  pz              9.5       0.1       0.0       0.0       0.0       0.0
15 H  px              5.9       0.1       0.0       0.0       0.0       0.0
15 H  py              0.3       0.1       0.0       0.0       0.0       0.0
16 H  s               0.8       1.6       0.0       0.0       0.0       0.0
16 H  pz              1.2       2.3       0.0       0.0       0.0       0.0
16 H  px              0.1       0.3       0.0       0.0       0.0       0.0
16 H  py              0.0       0.2       0.0       0.0       0.0       0.0
17 H  s               1.5       2.0       0.0       0.0       0.0       0.0
17 H  px              1.2       0.7       0.0       0.0       0.0       0.0
17 H  py              2.4       3.5       0.0       0.0       0.0       0.0
18 H  s               0.0       3.4       0.0       0.0       0.0       0.0
18 H  pz              0.0       0.3       0.0       0.0       0.0       0.0
18 H  px              0.0       4.0       0.0       0.0       0.0       0.0
18 H  py              0.0       1.8       0.0       0.0       0.0       0.0
19 H  s               0.1       2.8       0.0       0.0       0.0       0.0
19 H  pz              0.1       3.9       0.0       0.0       0.0       0.0
19 H  px              0.2       0.0       0.0       0.0       0.0       0.0
19 H  py              0.0       0.9       0.0       0.0       0.0       0.0
20 H  s               0.4       3.1       0.0       0.0       0.0       0.0
20 H  px              0.7       5.0       0.0       0.0       0.0       0.0
20 H  py              0.2       0.8       0.0       0.0       0.0       0.0
21 H  s               0.2       2.6       0.0       0.0       0.0       0.0
21 H  pz              0.2       3.9       0.0       0.0       0.0       0.0
21 H  py              0.0       0.5       0.0       0.0       0.0       0.0
22 H  s               2.1       0.9       0.0       0.0       0.0       0.0
22 H  pz              3.7       1.0       0.0       0.0       0.0       0.0
22 H  px              0.5       0.2       0.0       0.0       0.0       0.0
22 H  py              0.0       0.1       0.0       0.0       0.0       0.0
23 H  s               1.4       1.6       0.0       0.0       0.0       0.0
23 H  px              0.2       0.1       0.0       0.0       0.0       0.0
23 H  py              3.1       3.4       0.0       0.0       0.0       0.0

                    228       229       230       231   
                  22.11005  22.12695  22.18408  22.22019
                   0.00000   0.00000   0.00000   0.00000
                  --------  --------  --------  --------
 0 C  s               0.0       0.3       0.2       0.0
 1 C  s               3.6       7.3       0.3       0.7
 2 C  s              10.5      47.4       0.5       8.6
 3 C  s               0.0       0.0      61.7      21.0
 4 C  s               3.8       1.8      21.1      31.9
 5 C  s              52.4       3.4       3.6       0.3
 6 C  s              16.6      24.7       5.7       0.6
 7 C  s              12.8      14.9       6.4      36.6


                      *****************************
                      * MAYER POPULATION ANALYSIS *
                      *****************************

  NA   - Mulliken gross atomic population
  ZA   - Total nuclear charge
  QA   - Mulliken gross atomic charge
  VA   - Mayer's total valence
  BVA  - Mayer's bonded valence
  FA   - Mayer's free valence

  ATOM       NA         ZA         QA         VA         BVA        FA
  0 C      6.5293     6.0000    -0.5293     3.7822     3.7822    -0.0000
  1 C      6.2416     6.0000    -0.2416     3.6449     3.6449    -0.0000
  2 C      6.3324     6.0000    -0.3324     3.6835     3.6835     0.0000
  3 C      5.9864     6.0000     0.0136     3.3882     3.3882     0.0000
  4 C      6.3867     6.0000    -0.3867     3.5988     3.5988    -0.0000
  5 C      6.3556     6.0000    -0.3556     3.6915     3.6915     0.0000
  6 C      6.3384     6.0000    -0.3384     3.6946     3.6946     0.0000
  7 C      6.3791     6.0000    -0.3791     3.6116     3.6116    -0.0000
  8 H      0.8408     1.0000     0.1592     0.9596     0.9596     0.0000
  9 H      0.8456     1.0000     0.1544     0.9610     0.9610    -0.0000
 10 H      0.8441     1.0000     0.1559     0.9590     0.9590     0.0000
 11 H      0.8568     1.0000     0.1432     0.9668     0.9668    -0.0000
 12 H      0.8502     1.0000     0.1498     0.9587     0.9587    -0.0000
 13 H      0.8423     1.0000     0.1577     0.9605     0.9605     0.0000
 14 H      0.8479     1.0000     0.1521     0.9620     0.9620     0.0000
 15 H      0.8328     1.0000     0.1672     0.9557     0.9557    -0.0000
 16 H      0.8351     1.0000     0.1649     0.9594     0.9594     0.0000
 17 H      0.8374     1.0000     0.1626     0.9614     0.9614     0.0000
 18 H      0.8400     1.0000     0.1600     0.9605     0.9605     0.0000
 19 H      0.8311     1.0000     0.1689     0.9591     0.9591     0.0000
 20 H      0.8410     1.0000     0.1590     0.9615     0.9615     0.0000
 21 H      0.8314     1.0000     0.1686     0.9587     0.9587     0.0000
 22 H      0.8330     1.0000     0.1670     0.9584     0.9584    -0.0000
 23 H      0.8411     1.0000     0.1589     0.9634     0.9634    -0.0000

  Mayer bond orders larger than 0.100000
B(  0-C ,  1-C ) :   0.8853 B(  0-C ,  8-H ) :   0.9807 B(  0-C ,  9-H ) :   0.9775 
B(  0-C , 10-H ) :   0.9694 B(  1-C ,  2-C ) :   0.9045 B(  1-C , 11-H ) :   0.9873 
B(  1-C , 12-H ) :   0.9692 B(  2-C ,  3-C ) :   0.9519 B(  2-C , 13-H ) :   0.9633 
B(  2-C , 14-H ) :   0.9748 B(  3-C ,  4-C ) :   0.8565 B(  3-C ,  7-C ) :   0.8753 
B(  3-C , 15-H ) :   0.9520 B(  4-C ,  5-C ) :   0.9036 B(  4-C , 16-H ) :   0.9733 
B(  4-C , 17-H ) :   0.9737 B(  5-C ,  6-C ) :   0.9139 B(  5-C , 18-H ) :   0.9675 
B(  5-C , 19-H ) :   0.9936 B(  6-C ,  7-C ) :   0.9092 B(  6-C , 20-H ) :   0.9675 
B(  6-C , 21-H ) :   0.9921 B(  7-C , 22-H ) :   0.9863 B(  7-C , 23-H ) :   0.9725 


-------
TIMINGS
-------

Total SCF time: 0 days 0 hours 0 min 27 sec 

Total time                  ....      27.436 sec
Sum of individual times     ....      27.058 sec  ( 98.6%)

SCF preparation             ....       0.422 sec  (  1.5%)
Fock matrix formation       ....      25.809 sec  ( 94.1%)
  Startup                   ....       0.054 sec  (  0.2% of F)
  Split-RI-J                ....       4.134 sec  ( 16.0% of F)
  XC integration            ....      16.358 sec  ( 63.4% of F)
    XC Preparation          ....       0.000 sec  (  0.0% of XC)
    Basis function eval.    ....       2.890 sec  ( 17.7% of XC)
    Density eval.           ....       5.309 sec  ( 32.5% of XC)
    XC-Functional eval.     ....       1.894 sec  ( 11.6% of XC)
    XC-Potential eval.      ....       5.515 sec  ( 33.7% of XC)
  CPCM terms                ....       4.847 sec  ( 18.8% of F)
Diagonalization             ....       0.000 sec  (  0.0%)
Density matrix formation    ....       0.183 sec  (  0.7%)
Total Energy calculation    ....       0.034 sec  (  0.1%)
Population analysis         ....       0.144 sec  (  0.5%)
Orbital Transformation      ....       0.064 sec  (  0.2%)
Orbital Orthonormalization  ....       0.000 sec  (  0.0%)
DIIS solution               ....       0.345 sec  (  1.3%)
  MO trafo                  ....       0.000 sec  (  0.0 % of DIIS)
  Orb grad                  ....       0.000 sec  (  0.0 % of DIIS)
  Energy W gradient         ....       0.000 sec  (  0.0 % of DIIS)
  DIIS error                ....       0.010 sec  (  3.0 % of DIIS)
  DIIS work                 ....       0.284 sec  ( 82.3 % of DIIS)
  Form Q                    ....       0.000 sec  (  0.0 % of DIIS)
  Form QpQm                 ....       0.000 sec  (  0.0 % of DIIS)
  Exp/Cayley                ....       0.000 sec  (  0.0 % of DIIS)
  Orb update                ....       0.000 sec  (  0.0 % of DIIS)
  Wake-sleep                ....       0.015 sec  (  4.3 % of DIIS)
SOSCF solution              ....       0.057 sec  (  0.2%)
  MO trafo                  ....       0.043 sec  ( 75.9 % of SOSCF)
  Orb grad                  ....       0.001 sec  (  1.0 % of SOSCF)
  Rot update                ....       0.000 sec  (  0.1 % of SOSCF)
  Step                      ....       0.013 sec  ( 22.8 % of SOSCF)
Finished LeanSCF after  27.6 sec

Maximum memory used throughout the entire LEANSCF-calculation: 37.2 MB


-------------------------------------------------------------------------------
                          DFT DISPERSION CORRECTION                            
                                                                               
                                DFTD4 V3.4.0                                   
-------------------------------------------------------------------------------
The R2SCAN3C composite method is recognized
Using three-body term ABC
Active option DFTDOPT                   ...         5   

-------------------------   ----------------
Dispersion correction           -0.007170448
-------------------------   ----------------

------------------   -----------------
gCP correction             0.010352826
------------------   -----------------

-------------------------   --------------------
FINAL SINGLE POINT ENERGY      -314.378059666783
-------------------------   --------------------


------------------------------------------------------------------------------
                              ORCA PROPERTY CALCULATIONS
------------------------------------------------------------------------------

GBWName                                 ... sp_solv.gbw
Number of atoms                         ...     24
Number of basis functions               ...    232
Max core memory                         ...   1024 MB

Electric properties:
Dipole moment                           ... YES
Quadrupole moment                       ...  NO
Static polarizability (Dipole/Dipole)   ...  NO
Static polarizability (Dipole/Quad.)    ...  NO
Static polarizability (Quad./Quad.)     ...  NO
Static polarizability (Velocity)        ...  NO

Atomic electric properties:
Dipole moment                           ...  NO
Quadrupole moment                       ...  NO
Static polarizability                   ...  NO

Choice of electric origin               ... Center of mass
Position of electric origin             ...    -0.000004    -0.000001    -0.000000

General magnetic properties:
Magnetizability                         ...  NO

EPR properties:
g-Tensor (aka g-matrix)                 ...  NO
Zero-Field splitting spin-orbit         ...  NO
Zero-field splitting spin-spin          ...  NO
Hyperfine couplings                     ...  NO (   0 nuclei)
Quadrupole couplings                    ...  NO (   0 nuclei)
Contact density                         ...  NO (   0 nuclei)

NMR properties:
Chemical shifts                         ...  NO (   0 nuclei)
Spin-rotation constants                 ...  NO (   0 nuclei)
Spin-spin couplings                     ...  NO (   0 nuclei,    0 pairs)

Choice of magnetic origin               ... GIAO
Position of magnetic origin             ...     0.000000     0.000000     0.000000

Properties with geometric perturbations:
SCF Hessian                             ...  NO
IR spectrum                             ...  NO
VCD spectrum                            ...  NO
X-ray spectroscopy properties:
SCF XES/XAS/RIXS spectra                ...  NO


-------------
DIPOLE MOMENT
-------------

Method             : SCF
Type of density    : Electron Density
Multiplicity       :   1
Irrep              :   0
Energy             :  -314.3812420450640843 Eh
Relativity type    : 
Basis              : AO
                                X                 Y                 Z
Electronic contribution:      2.471108760       0.346242534       0.100686168
Nuclear contribution   :     -2.491961581      -0.361231239      -0.101933429
                        -----------------------------------------
Total Dipole Moment    :     -0.020852821      -0.014988706      -0.001247261
                        -----------------------------------------
Magnitude (a.u.)       :      0.025711030
Magnitude (Debye)      :      0.065352246



--------------------
Rotational spectrum 
--------------------
 
Rotational constants in cm-1:             0.137813             0.038419             0.035939 
Rotational constants in MHz :          4131.536592          1151.770830          1077.410657 

Dipole components along the rotational axes: 
x,y,z [a.u.] :    -0.022293    -0.012808     0.000154 
x,y,z [Debye]:    -0.056664    -0.032556     0.000390 

 

Dipole moment calculation done in   0.0 sec 

Maximum memory used throughout the entire PROP-calculation: 15.3 MB

--------------------------------
SUGGESTED CITATIONS FOR THIS RUN
--------------------------------

Below you find a list of papers that are relevant to this ORCA run
We neither can nor want to force you to cite these papers, but we appreciate if you do
You receive ORCA, which is the product of decades of hard work by many enthusiastic individuals, for free
The only thing we kindly ask in return is that you cite our papers,
We deeply appreciate it, if you show your appreciation for ORCA by not just citing the generic ORCA reference.

Please note that relegating all ORCA citations to the supporting information does *not* help us.
SI sections are not indexed - citations you put there will not count into any citation statistics
But we need these citations in order to attract the funding resources that allow us to do what we are doing

Therefore, if you are a happy ORCA user, please consider citing a few of the papers listed below in the main body of your paper

In addition to the list printed below, the program has created the file sp_solv.bibtex that contains the list in bibtex format
You can import this file easily into all common literature databanks and citation aid programs


List of essential papers. We consider these as the minimum necessary citations

  1. Neese,F.
     Software update: the ORCA program system, version 5.0
     WIRES Comput. Molec. Sci., 2022 12(1)e1606
     doi.org/10.1002/wcms.1606
  2. Grimme,S.; Hansen,A.; Ehlert,S.; Mewes,J.
     r2SCAN-3c: A 'Swiss army knife' composite electronic-structure method
     J. Chem. Phys., 2021 154 064103
     doi.org/10.1063/5.0040021

List of papers to cite with high priority. The work reported in these papers was absolutely
necessary for this run to complete.
Our perspective: the developers of density functionals and basis sets usually get cited in chemistry papers
Good! But without the algorithms to do something with them, the functionals or basis sets would not do anything.
Hence, in our opinion, the algorithm design and method developments papers are equally worthy of getting cited

  1. Neese,F.
     An improvement of the resolution of the identity approximation for the formation of the Coulomb matrix
     J. Comp. Chem., 2003 24(14)1740-1747
     doi.org/10.1002/jcc.10318
  2. Garcia-Rates,M.; Neese,F.
     Effect of the Solute Cavity on the Solvation Energy and its Derivatives within the Framework of the Gaussian Charge Scheme
     J. Comput. Chem., 2020 41 922-939
     doi.org/10.1002/jcc.26139
  3. Neese,F.
     The SHARK Integral Generation and Digestion System
     J. Comp. Chem., 2022  1-16
     doi.org/10.1002/jcc.26942
  4. Lehtola,S.; Steigemann,C.; Oliveira,M.; Marques,M.
     Recent developments in Libxc - A comprehensive library of functionals for density functional theory
     Software X, 2018 7 
     doi.org/10.1016/j.softx.2017.11.002
  5. Caldeweyher,E.; Bannwarth,C.; Grimme,S.
     Extension of the D3 dispersion coefficient model
     J. Chem. Phys., 2017 147 034112-XXXX
     doi.org/10.1063/1.4993215
  6. Caldeweyher,E.; Ehlert,S.; Hansen,A.; Neugebauer,H.; Spicher,S.; Bannwarth,C.; Grimme,S.
     A generally applicable atomic-charge dependent London dispersion correction
     J. Chem. Phys., 2019 150 154122-XXXX
     doi.org/10.1063/1.5090222
  7. Caldeweyher,E.; Mewes,J.; Ehlert,S.; Grimme,S.
     Extension and evaluation of the D4 London-dispersion model for periodic systems
     Phys. Chem. Chem. Phys., 2020 22(16)8499-8512
     doi.org/10.1039/D0CP00502A

List of suggested additional citations. These are papers that are important in the 'surrounding' of 
of this run, or papers that preceded the highly important papers. If you like your results we are grateful for a citation.

  1. Neese,F.
     The ORCA program system
     WIRES Comput. Molec. Sci., 2012 2(1)73-78
     doi.org/10.1002/wcms.81
  2. Neese,F.
     Software update: the ORCA program system, version 4.0
     WIRES Comput. Molec. Sci., 2018 8(1)1-6
     doi.org/10.1002/wcms.1327
  3. Neese,F.; Wennmohs,F.; Becker,U.; Riplinger,C.
     The ORCA quantum chemistry program package
     J. Chem. Phys., 2020 152 Art. No. L224108
     doi.org/10.1063/5.0004608

List of optional additional citations

  1. Neese,F.
     Approximate second-order SCF convergence for spin unrestricted wavefunctions
     Chem. Phys. Lett., 2000 325(1-3)93-98
     doi.org/10.1016/s0009-2614(00)00662-x

Timings for individual modules:

Sum of individual times          ...       29.585 sec (=   0.493 min)
Startup calculation              ...        1.484 sec (=   0.025 min)   5.0 %
SCF iterations                   ...       27.988 sec (=   0.466 min)  94.6 %
Property calculations            ...        0.113 sec (=   0.002 min)   0.4 %
                             ****ORCA TERMINATED NORMALLY****
TOTAL RUN TIME: 0 days 0 hours 0 minutes 30 seconds 880 msec
