
                                 *****************
                                 * O   R   C   A *
                                 *****************

                                            #,                                       
                                            ###                                      
                                            ####                                     
                                            #####                                    
                                            ######                                   
                                           ########,                                 
                                     ,,################,,,,,                         
                               ,,#################################,,                 
                          ,,##########################################,,             
                       ,#########################################, ''#####,          
                    ,#############################################,,   '####,        
                  ,##################################################,,,,####,       
                ,###########''''           ''''###############################       
              ,#####''   ,,,,##########,,,,          '''####'''          '####       
            ,##' ,,,,###########################,,,                        '##       
           ' ,,###''''                  '''############,,,                           
         ,,##''                                '''############,,,,        ,,,,,,###''
      ,#''                                            '''#######################'''  
     '                                                          ''''####''''         
             ,#######,   #######,   ,#######,      ##                                
            ,#'     '#,  ##    ##  ,#'     '#,    #''#        ,####,   ,####,        
            ##       ##  ##   ,#'  ##            #'  '#       #'       #'  '#        
            ##       ##  #######   ##           ,######,      #####,   #    #        
            '#,     ,#'  ##    ##  '#,     ,#' ,#      #,     #,   #   #,  ,#        
             '#######'   ##     ##  '#######'  #'      '#     '####' # '####'        



                #########################################################
                #                        -***-                          #
                #          Department of theory and spectroscopy        #
                #                                                       #
                #                      Frank Neese                      #
                #                                                       #
                #     Directorship, Architecture, Infrastructure        #
                #                    SHARK, DRIVERS                     #
                #        Core code/Algorithms in most modules           #
                #                                                       #
                #        Max Planck Institute fuer Kohlenforschung      #
                #                Kaiser Wilhelm Platz 1                 #
                #                 D-45470 Muelheim/Ruhr                 #
                #                      Germany                          #
                #                                                       #
                #                  All rights reserved                  #
                #                        -***-                          #
                #########################################################


                         Program Version 6.0.0  -   RELEASE  -


 With contributions from (in alphabetic order):
   Daniel Aravena         : Magnetic Suceptibility
   Michael Atanasov       : Ab Initio Ligand Field Theory (pilot matlab implementation)
   Alexander A. Auer      : GIAO ZORA, VPT2 properties, NMR spectrum
   Ute Becker             : All parallelization in ORCA, NUMFREQ, NUMCALC
   Giovanni Bistoni       : ED, misc. LED, open-shell LED, HFLD
   Martin Brehm           : Molecular dynamics
   Dmytro Bykov           : pre 5.0 version of the SCF Hessian
   Marcos Casanova-Páez   : Triplet and SCS-CIS(D). UHF-(DLPNO)-IP/EA/STEOM-CCSD. UHF-CVS-IP/STEOM-CCSD
   Vijay G. Chilkuri      : MRCI spin determinant printing, contributions to CSF-ICE
   Pauline Colinet        : FMM embedding
   Dipayan Datta          : RHF DLPNO-CCSD density
   Achintya Kumar Dutta   : EOM-CC, STEOM-CC
   Nicolas Foglia         : Exact transition moments, OPA infrastructure, MCD improvements
   Dmitry Ganyushin       : Spin-Orbit,Spin-Spin,Magnetic field MRCI
   Miquel Garcia          : C-PCM and meta-GGA Hessian, CCSD/C-PCM, Gaussian charge scheme
   Tiago L. C. Gouveia    : GS-ROHF, GS-ROCIS
   Yang Guo               : DLPNO-NEVPT2, F12-NEVPT2, CIM, IAO-localization
   Andreas Hansen         : Spin unrestricted coupled pair/coupled cluster methods
   Ingolf Harden          : AUTO-CI MPn and infrastructure 
   Benjamin Helmich-Paris : MC-RPA, TRAH-(SCF,CASSCF), AVAS, COSX integrals, SCF dyn. polar.
   Lee Huntington         : MR-EOM, pCC
   Robert Izsak           : Overlap fitted RIJCOSX, COSX-SCS-MP3, EOM
   Riya Kayal             : Wick's Theorem for AUTO-CI, AUTO-CI UHF-CCSDT
   Emily Kempfer          : AUTO-CI, RHF CISDT and CCSDT
   Christian Kollmar      : KDIIS, OOCD, Brueckner-CCSD(T), CCSD density, CASPT2, CASPT2-K, improved NEVPT2
   Axel Koslowski         : Symmetry handling
   Simone Kossmann        : Meta GGA functionals, TD-DFT gradient, OOMP2, (MP2 Hessian; deprecated post 5.0)
   Lucas Lang             : DCDCAS
   Marvin Lechner         : AUTO-CI (C++ implementation), FIC-MRCC
   Spencer Leger          : CASSCF response
   Dagmar Lenk            : GEPOL surface, SMD, ORCA-2-JSON
   Dimitrios Liakos       : Extrapolation schemes; Compound Job, initial MDCI parallelization
   Dimitrios Manganas     : Further ROCIS development; embedding schemes. LFT, Crystal Embedding
   Dimitrios Pantazis     : SARC Basis sets
   Anastasios Papadopoulos: AUTO-CI, single reference methods and gradients
   Taras Petrenko         : pre 6.0 DFT Hessian and TD-DFT gradient, (ASA, deprecated), ECA, 1-Electron XAS/XES, NRVS
   Peter Pinski           : DLPNO-MP2, DLPNO-MP2 Gradient
   Christoph Reimann      : Effective Core Potentials
   Marius Retegan         : Local ZFS, SOC
   Christoph Riplinger    : Optimizer, TS searches, QM/MM, DLPNO-CCSD(T), (RO)-DLPNO pert. Triples
   Michael Roemelt        : Original ROCIS implementation
   Masaaki Saitow         : Open-shell DLPNO-CCSD energy and density
   Barbara Sandhoefer     : DKH picture change effects
   Kantharuban Sivalingam : CASSCF convergence/infrastructure, NEVPT2 and variants, FIC-MRCI
   Bernardo de Souza      : ESD, SOC TD-DFT
   Georgi Stoychev        : AutoAux, RI-MP2 NMR, DLPNO-MP2 response, X2C
   Van Anh Tran           : RI-MP2 g-tensors
   Willem Van den Heuvel  : Paramagnetic NMR
   Zikuan Wang            : NOTCH, Electric field optimization 
   Frank Wennmohs         : Technical directorship and infrastructure
   Hang Xu                : AUTO-CI-Response properties 


 We gratefully acknowledge several colleagues who have allowed us to
 interface, adapt or use parts of their codes:
   Stefan Grimme, W. Hujo, H. Kruse, P. Pracht,  : VdW corrections, initial TS optimization,
                  C. Bannwarth, S. Ehlert,         DFT functionals, gCP, sTDA/sTD-DF
                  L. Wittmann, M. Mueller
   Ed Valeev, F. Pavosevic, A. Kumar             : LibInt (2-el integral package), F12 methods
   Garnet Chan, S. Sharma, J. Yang, R. Olivares  : DMRG
   Ulf Ekstrom                                   : XCFun DFT Library
   Mihaly Kallay                                 : mrcc  (arbitrary order and MRCC methods)
   Frank Weinhold                                : gennbo (NPA and NBO analysis)
   Simon Mueller                                 : openCOSMO-RS
   Christopher J. Cramer and Donald G. Truhlar   : smd solvation model
   Lars Goerigk                                  : TD-DFT with DH, B97 family of functionals
   V. Asgeirsson, H. Jonsson                     : NEB implementation
   FAccTs GmbH                                   : IRC, NEB, NEB-TS, DLPNO-Multilevel, CI-OPT
                                                   MM, QMMM, 2- and 3-layer-ONIOM, Crystal-QMMM,
                                                   LR-CPCM, SF, NACMEs, symmetry and pop. for TD-DFT,
                                                   nearIR, NL-DFT gradient (VV10), updates on ESD,
                                                   ML-optimized integration grids, MBIS, APM,
                                                   GOAT, DOCKER, SOLVATOR, interface openCOSMO-RS
   S Lehtola, MJT Oliveira, MAL Marques          : LibXC Library
   Liviu Ungur et al                             : ANISO software


 Your calculation uses the libint2 library for the computation of 2-el integrals
 For citations please refer to: http://libint.valeyev.net

 Your ORCA version has been built with support for libXC version: 6.2.2
 For citations please refer to: https://libxc.gitlab.io

 This ORCA versions uses:
   CBLAS   interface :  Fast vector & matrix operations
   LAPACKE interface :  Fast linear algebra routines
   SCALAPACK package :  Parallel linear algebra routines
   Shared memory     :  Shared parallel matrices
   BLAS/LAPACK       :  OpenBLAS 0.3.27  USE64BITINT DYNAMIC_ARCH NO_AFFINITY SkylakeX SINGLE_THREADED
        Core in use  :  SkylakeX
   Copyright (c) 2011-2014, The OpenBLAS Project


Your calculation utilizes the geometrical counterpoise correction gCP
Please cite in your paper:
H.Kruse, S. Grimme J.Chem.Phys., 136, (2012), 154101 
   

Your calculation utilizes the atom-pairwise dispersion correction
based on EEQ partial charges (D4)


================================================================================

----- Orbital basis set information -----
Your calculation utilizes the basis: def2-SV(P)
   F. Weigend and R. Ahlrichs, Phys. Chem. Chem. Phys. 7, 3297 (2005).

----- AuxJ basis set information -----
Your calculation utilizes the auxiliary basis: def2/J
   F. Weigend, Phys. Chem. Chem. Phys. 8, 1057 (2006).

================================================================================
                                        WARNINGS
                       Please study these warnings very carefully!
================================================================================


================================================================================
                                       INPUT FILE
================================================================================
NAME = sp.inp
|  1> ! pbe def2-sv(p) def2/J RI DEFGRID1 loosescf d4 GCP(DFT/SV(P)) printgap
|  2> %output
|  3>     printlevel normal
|  4> end
|  5> * xyz 0 1
|  6> C -2.5272868711 0.1058945267 0.3134784736
|  7> C -1.2635658513 0.6802656663 -0.315629658
|  8> C -0.0011436426 -0.0180328696 0.19941226
|  9> C 1.2652753332 0.6882911674 -0.3064423698
| 10> C 2.5451933896 0.138215136 0.3156387097
| 11> O -0.0625305309 -1.3667049854 -0.2354941769
| 12> H -3.4093440399 0.5818153841 -0.1063757822
| 13> H -2.5804517001 -0.9627581819 0.1221854301
| 14> H -2.5236186404 0.2660077833 1.3894020336
| 15> H -1.3031474868 0.549167214 -1.3982004901
| 16> H -1.1913526869 1.746289376 -0.0972504222
| 17> H -0.0078606243 0.0076136582 1.3020691293
| 18> H 1.3071084528 0.5836509088 -1.3923545681
| 19> H 1.1783136079 1.7496108621 -0.0702166985
| 20> H 2.4925993822 0.1869168872 1.4014264076
| 21> H 2.7155693181 -0.8939667395 0.018791302
| 22> H 3.3992590731 0.7247111214 -0.0127211127
| 23> H 0.6954022624 -1.8470102024 0.1211547983
| 24> *
| 25> 
| 26>                          ****END OF INPUT****
================================================================================

                       ****************************
                       * Single Point Calculation *
                       ****************************

---------------------------------
CARTESIAN COORDINATES (ANGSTROEM)
---------------------------------
  C     -2.527287    0.105895    0.313478
  C     -1.263566    0.680266   -0.315630
  C     -0.001144   -0.018033    0.199412
  C      1.265275    0.688291   -0.306442
  C      2.545193    0.138215    0.315639
  O     -0.062531   -1.366705   -0.235494
  H     -3.409344    0.581815   -0.106376
  H     -2.580452   -0.962758    0.122185
  H     -2.523619    0.266008    1.389402
  H     -1.303147    0.549167   -1.398200
  H     -1.191353    1.746289   -0.097250
  H     -0.007861    0.007614    1.302069
  H      1.307108    0.583651   -1.392355
  H      1.178314    1.749611   -0.070217
  H      2.492599    0.186917    1.401426
  H      2.715569   -0.893967    0.018791
  H      3.399259    0.724711   -0.012721
  H      0.695402   -1.847010    0.121155

----------------------------
CARTESIAN COORDINATES (A.U.)
----------------------------
  NO LB      ZA    FRAG     MASS         X           Y           Z
   0 C     6.0000    0    12.011   -4.775880    0.200112    0.592388
   1 C     6.0000    0    12.011   -2.387793    1.285516   -0.596454
   2 C     6.0000    0    12.011   -0.002161   -0.034077    0.376835
   3 C     6.0000    0    12.011    2.391024    1.300682   -0.579092
   4 C     6.0000    0    12.011    4.809718    0.261189    0.596471
   5 O     8.0000    0    15.999   -0.118166   -2.582698   -0.445020
   6 H     1.0000    0     1.008   -6.442727    1.099472   -0.201021
   7 H     1.0000    0     1.008   -4.876347   -1.819349    0.230897
   8 H     1.0000    0     1.008   -4.768948    0.502682    2.625589
   9 H     1.0000    0     1.008   -2.462592    1.037776   -2.642216
  10 H     1.0000    0     1.008   -2.251330    3.300009   -0.183777
  11 H     1.0000    0     1.008   -0.014854    0.014388    2.460554
  12 H     1.0000    0     1.008    2.470077    1.102940   -2.631169
  13 H     1.0000    0     1.008    2.226690    3.306285   -0.132690
  14 H     1.0000    0     1.008    4.710330    0.353222    2.648312
  15 H     1.0000    0     1.008    5.131682   -1.689352    0.035510
  16 H     1.0000    0     1.008    6.423669    1.369506   -0.024039
  17 H     1.0000    0     1.008    1.314120   -3.490343    0.228949

--------------------------------
INTERNAL COORDINATES (ANGSTROEM)
--------------------------------
 C      0   0   0     0.000000000000     0.00000000     0.00000000
 C      1   0   0     1.524030860296     0.00000000     0.00000000
 C      2   1   0     1.531861239002   111.88601356     0.00000000
 C      3   2   1     1.535773282096   111.04959043   187.20084046
 C      4   3   2     1.525699426785   113.05751858   172.89462992
 O      3   2   1     1.418389380547   107.13865332    64.80229202
 H      1   2   3     1.086647646504   110.39706447   182.95528504
 H      1   2   3     1.086939804742   109.78218345   302.94507231
 H      1   2   3     1.087778110562   110.48877665    62.69692561
 H      2   1   3     1.091198018958   109.52220521   119.69511226
 H      2   1   3     1.090555262875   109.91620590   238.89697405
 H      3   2   1     1.102975536286   108.69342878   306.95511773
 H      4   3   2     1.091743970000   108.36911701   294.85903677
 H      4   3   2     1.090763220780   108.08472551    51.85760696
 H      5   4   3     1.088151145336   110.49745597   304.25195115
 H      5   4   3     1.087449200920   111.24459618    65.22707820
 H      5   4   3     1.086842171426   109.96743780   184.65075385
 H      6   3   2     0.965584647842   109.01098088   183.45946647

---------------------------
INTERNAL COORDINATES (A.U.)
---------------------------
 C      0   0   0     0.000000000000     0.00000000     0.00000000
 C      1   0   0     2.880000945604     0.00000000     0.00000000
 C      2   1   0     2.894798216883   111.88601356     0.00000000
 C      3   2   1     2.902190906955   111.04959043   187.20084046
 C      4   3   2     2.883154079304   113.05751858   172.89462992
 O      3   2   1     2.680367480496   107.13865332    64.80229202
 H      1   2   3     2.053466455963   110.39706447   182.95528504
 H      1   2   3     2.054018555020   109.78218345   302.94507231
 H      1   2   3     2.055602723437   110.48877665    62.69692561
 H      2   1   3     2.062065413708   109.52220521   119.69511226
 H      2   1   3     2.060850780740   109.91620590   238.89697405
 H      3   2   1     2.084321695996   108.69342878   306.95511773
 H      4   3   2     2.063097111661   108.36911701   294.85903677
 H      4   3   2     2.061243764228   108.08472551    51.85760696
 H      5   4   3     2.056307656997   110.49745597   304.25195115
 H      5   4   3     2.054981174290   111.24459618    65.22707820
 H      5   4   3     2.053834054791   109.96743780   184.65075385
 H      6   3   2     1.824690543540   109.01098088   183.45946647

---------------------
BASIS SET INFORMATION
---------------------
There are 3 groups of distinct atoms

 Group   1 Type C   : 7s4p1d contracted to 3s2p1d pattern {511/31/1}
 Group   2 Type O   : 7s4p1d contracted to 3s2p1d pattern {511/31/1}
 Group   3 Type H   : 4s contracted to 2s pattern {31}

Atom   0C    basis set group =>   1
Atom   1C    basis set group =>   1
Atom   2C    basis set group =>   1
Atom   3C    basis set group =>   1
Atom   4C    basis set group =>   1
Atom   5O    basis set group =>   2
Atom   6H    basis set group =>   3
Atom   7H    basis set group =>   3
Atom   8H    basis set group =>   3
Atom   9H    basis set group =>   3
Atom  10H    basis set group =>   3
Atom  11H    basis set group =>   3
Atom  12H    basis set group =>   3
Atom  13H    basis set group =>   3
Atom  14H    basis set group =>   3
Atom  15H    basis set group =>   3
Atom  16H    basis set group =>   3
Atom  17H    basis set group =>   3
---------------------------------
AUXILIARY/J BASIS SET INFORMATION
---------------------------------
There are 3 groups of distinct atoms

 Group   1 Type C   : 12s5p4d2f1g contracted to 6s4p3d1f1g pattern {711111/2111/211/2/1}
 Group   2 Type O   : 12s5p4d2f1g contracted to 6s4p3d1f1g pattern {711111/2111/211/2/1}
 Group   3 Type H   : 5s2p1d contracted to 3s1p1d pattern {311/2/1}

Atom   0C    basis set group =>   1
Atom   1C    basis set group =>   1
Atom   2C    basis set group =>   1
Atom   3C    basis set group =>   1
Atom   4C    basis set group =>   1
Atom   5O    basis set group =>   2
Atom   6H    basis set group =>   3
Atom   7H    basis set group =>   3
Atom   8H    basis set group =>   3
Atom   9H    basis set group =>   3
Atom  10H    basis set group =>   3
Atom  11H    basis set group =>   3
Atom  12H    basis set group =>   3
Atom  13H    basis set group =>   3
Atom  14H    basis set group =>   3
Atom  15H    basis set group =>   3
Atom  16H    basis set group =>   3
Atom  17H    basis set group =>   3
------------------------------------------------------------------------------
                             ORCA STARTUP CALCULATIONS
                           -- RI-GTO INTEGRALS CHOSEN --
------------------------------------------------------------------------------
------------------------------------------------------------------------------
                   ___                                                        
                  /   \      - P O W E R E D   B Y -                         
                 /     \                                                     
                 |  |  |   _    _      __       _____    __    __             
                 |  |  |  | |  | |    /  \     |  _  \  |  |  /  |          
                  \  \/   | |  | |   /    \    | | | |  |  | /  /          
                 / \  \   | |__| |  /  /\  \   | |_| |  |  |/  /          
                |  |  |   |  __  | /  /__\  \  |    /   |      \           
                |  |  |   | |  | | |   __   |  |    \   |  |\   \          
                \     /   | |  | | |  |  |  |  | |\  \  |  | \   \       
                 \___/    |_|  |_| |__|  |__|  |_| \__\ |__|  \__/        
                                                                              
                      - O R C A' S   B I G   F R I E N D -                    
                                      &                                       
                       - I N T E G R A L  F E E D E R -                       
                                                                              
 v1 FN, 2020, v2 2021, v3 2022-2024                                           
------------------------------------------------------------------------------


----------------------
SHARK INTEGRAL PACKAGE
----------------------

Number of atoms                             ...     18
Number of basis functions                   ...    108
Number of shells                            ...     60
Maximum angular momentum                    ...      2
Integral batch strategy                     ... SHARK/LIBINT Hybrid
RI-J (if used) integral strategy            ... SPLIT-RIJ (Revised 2003 algorithm where possible)
Printlevel                                  ...      1
Contraction scheme used                     ... SEGMENTED contraction
Prescreening option                         ... SCHWARTZ
   Thresh                                   ... 1.000e-09
   Tcut                                     ... 1.000e-10
   Tpresel                                  ... 1.000e-10 
Coulomb Range Separation                    ... NOT USED
Exchange Range Separation                   ... NOT USED
Multipole approximations                    ... NOT USED
Finite Nucleus Model                        ... NOT USED
CABS basis                                  ... NOT available
Auxiliary Coulomb fitting basis             ... AVAILABLE
   # of basis functions in Aux-J            ...    426
   # of shells in Aux-J                     ...    150
   Maximum angular momentum in Aux-J        ...      4
Auxiliary J/K fitting basis                 ... NOT available
Auxiliary Correlation fitting basis         ... NOT available
Auxiliary 'external' fitting basis          ... NOT available

Checking pre-screening integrals            ... done (  0.0 sec) Dimension = 60
Check shell pair data                       ... done (  0.0 sec)
Shell pair information
Shell pair cut-off parameter TPreSel        ...   1.0e-10
Total number of shell pairs                 ...      1830
Shell pairs after pre-screening             ...      1763
Total number of primitive shell pairs       ...      7374
Primitive shell pairs kept                  ...      5170
          la=0 lb=0:    864 shell pairs
          la=1 lb=0:    493 shell pairs
          la=1 lb=1:     78 shell pairs
          la=2 lb=0:    238 shell pairs
          la=2 lb=1:     70 shell pairs
          la=2 lb=2:     20 shell pairs

Calculating one electron integrals          ... done (  0.0 sec)
Calculating RI/J V-Matrix + Cholesky decomp.... done (  0.1 sec)
Calculating Nuclear repulsion               ... done (  0.0 sec) ENN=    258.939298195293 Eh

Diagonalization of the overlap matrix:
Smallest eigenvalue                        ... 1.525e-03
Time for diagonalization                   ...    0.001 sec
Threshold for overlap eigenvalues          ... 1.000e-07
Number of eigenvalues below threshold      ... 0
Time for construction of square roots      ...    0.015 sec
Total time needed                          ...    0.028 sec

-------------------
DFT GRID GENERATION
-------------------

General Integration Accuracy     IntAcc      ... 4.159
Radial Grid Type                 RadialGrid  ... OptM3 with GC (2021)
Angular Grid (max. ang.)         AngularGrid ... 3 (Lebedev-194)
Angular grid pruning method      GridPruning ... 4 (adaptive)
Weight generation scheme         WeightScheme... mBecke (2022)
Basis function cutoff            BFCut       ... 1.0000e-10
Integration weight cutoff        WCut        ... 1.0000e-14
Partially contracted basis set               ... off
Rotationally invariant grid construction     ... off
Angular grids for H and He will be reduced by one unit

Total number of grid points                  ...    36400
Total number of batches                      ...      580
Average number of points per batch           ...       62
Average number of grid points per atom       ...     2022
Initializing property integral containers    ... done (  0.0 sec)

SHARK setup successfully completed in   0.6 seconds

Maximum memory used throughout the entire STARTUP-calculation: 17.6 MB
-------------------------------------------------------------------------------
                                 ORCA GUESS
                   Start orbitals & Density for SCF / CASSCF
-------------------------------------------------------------------------------

------------
SCF SETTINGS
------------
Hamiltonian:
 Density Functional     Method          .... DFT(GTOs)
 Exchange Functional    Exchange        .... PBE
   PBE kappa parameter   XKappa         ....  0.804000
   PBE mue parameter    XMuePBE         ....  0.219520
 Correlation Functional Correlation     .... PBE
   PBE beta parameter  CBetaPBE         ....  0.066725
 LDA part of GGA corr.  LDAOpt          .... PW91-LDA
 Gradients option       PostSCFGGA      .... off
   NL short-range parameter             ....  6.400000
 RI-approximation to the Coulomb term is turned on
   Number of AuxJ basis functions       .... 426


General Settings:
 Integral files         IntName         .... sp
 Hartree-Fock type      HFTyp           .... RHF
 Total Charge           Charge          ....    0
 Multiplicity           Mult            ....    1
 Number of Electrons    NEL             ....   50
 Basis Dimension        Dim             ....  108
 Nuclear Repulsion      ENuc            ....    258.9392981953 Eh

Convergence Acceleration:
 AO-DIIS                CNVDIIS         .... on
   Start iteration      DIISMaxIt       ....    12
   Startup error        DIISStart       ....  0.200000
   # of expansion vecs  DIISMaxEq       ....     5
   Bias factor          DIISBfac        ....   1.050
   Max. coefficient     DIISMaxC        ....  10.000
 MO-DIIS                CNVKDIIS        .... off
 Trust-Rad. Augm. Hess. CNVTRAH         .... auto
   Auto Start mean grad. ratio tolernc. ....  1.125000
   Auto Start start iteration           ....    50
   Auto Start num. interpolation iter.  ....    10
   Max. Number of Micro iterations      ....    24
   Max. Number of Macro iterations      .... Maxiter - #DIIS iter
   Number of Davidson start vectors     ....     2
   Converg. threshold    (grad. norm)   ....   1.000e-04
   Grad. Scal. Fac. for Micro threshold ....   0.100
   Minimum threshold for Micro iter.    ....   1.000e-02
   NR start threshold (gradient norm)   ....   1.000e-04
   Initial trust radius                 ....   0.400
   Minimum AH scaling param. (alpha)    ....   1.000
   Maximum AH scaling param. (alpha)    .... 1000.000
   Quad. conv. algorithm                .... NR
   White noise on init. David. guess    .... on
   Maximum white noise                  ....   0.010
   Pseudo random numbers                .... off
   Inactive MOs                         .... canonical
   Orbital update algorithm             .... Taylor
   Preconditioner                       .... Diag
   Full preconditioner red. dimension   ....   250
 SOSCF                  CNVSOSCF        .... on
   Start iteration      SOSCFMaxIt      ....   150
   Startup grad/error   SOSCFStart      ....  0.003300
   Hessian update       SOSCFHessUp     .... L-BFGS
 Level Shifting         CNVShift        .... on
   Level shift para.    LevelShift      ....    0.2500
   Turn off err/grad.   ShiftErr        ....    0.0010
 Zerner damping         CNVZerner       .... off
 Static damping         CNVDamp         .... on
   Fraction old density DampFac         ....    0.7000
   Max. Damping (<1)    DampMax         ....    0.9800
   Min. Damping (>=0)   DampMin         ....    0.0000
   Turn off err/grad.   DampErr         ....    0.1000

SCF Procedure:
 Maximum # iterations   MaxIter         ....   125
 SCF integral mode      SCFMode         .... Direct
   Integral package                     .... SHARK and LIBINT hybrid scheme
 Reset frequency        DirectResetFreq ....    20
 Integral Threshold     Thresh          ....  1.000e-09 Eh
 Primitive CutOff       TCut            ....  1.000e-10 Eh

Convergence Tolerance:
 Convergence Check Mode ConvCheckMode   .... Total+1el-Energy
 Convergence forced     ConvForced      .... 0
 Energy Change          TolE            ....  1.000e-05 Eh
 1-El. energy change                    ....  1.000e-02 Eh
 Orbital Gradient       TolG            ....  1.000e-04
 Orbital Rotation angle TolX            ....  1.000e-04
 DIIS Error             TolErr          ....  5.000e-04

------------------------------
INITIAL GUESS: MODEL POTENTIAL
------------------------------
Loading Hartree-Fock densities                     ... done
Calculating cut-offs                               ... done
Initializing the effective Hamiltonian             ... done
Setting up the integral package (SHARK)            ... done
Starting the Coulomb interaction                   ... done (   0.1 sec)
Making the grid                                    ... done (   0.2 sec)
Mapping shells                                     ... done
Starting the XC term evaluation                    ... done (   0.1 sec)
  promolecular density results
     # of electrons  =     49.996816548
     EX              =    -37.276312227
     EC              =     -1.628707917
     EX+EC           =    -38.905020144
Transforming the Hamiltonian                       ... done (   0.0 sec)
Diagonalizing the Hamiltonian                      ... done (   0.0 sec)
Back transforming the eigenvectors                 ... done (   0.0 sec)
Now organizing SCF variables                       ... done
                      ------------------
                      INITIAL GUESS DONE (   0.4 sec)
                      ------------------
             **** ENERGY FILE WAS UPDATED (sp.en.tmp) ****
Finished Guess after   0.6 sec
Maximum memory used throughout the entire GUESS-calculation: 13.4 MB

-------------------------------------------------------------------------------------------
                                      ORCA LEAN-SCF
                              memory conserving SCF solver
-------------------------------------------------------------------------------------------

----------------------------------------D-I-I-S--------------------------------------------
Iteration    Energy (Eh)           Delta-E    RMSDP     MaxDP     DIISErr   Damp  Time(sec)
-------------------------------------------------------------------------------------------
               ***  Starting incremental Fock matrix formation  ***
    1    -272.1675404369705689     0.00e+00  5.55e-03  8.22e-02  2.23e-01  0.700   0.6
    2    -272.2715530384821818    -1.04e-01  3.84e-03  4.73e-02  8.05e-02  0.700   0.8
                               ***Turning on AO-DIIS***
    3    -272.3067618266549630    -3.52e-02  1.48e-03  1.47e-02  2.21e-02  0.700   0.7
    4    -272.3276865322666822    -2.09e-02  2.07e-03  2.33e-02  8.17e-03  0.000   0.7
    5    -272.3757707280323643    -4.81e-02  6.55e-04  6.05e-03  9.31e-03  0.000   0.7
                              *** Initializing SOSCF ***
---------------------------------------S-O-S-C-F--------------------------------------
Iteration    Energy (Eh)           Delta-E    RMSDP     MaxDP     MaxGrad    Time(sec)
--------------------------------------------------------------------------------------
    6    -272.3763132534775764    -5.43e-04  2.39e-04  2.19e-03  1.96e-03     0.7
               *** Restarting incremental Fock matrix formation ***
    7    -272.3763581052220957    -4.49e-05  1.83e-04  1.87e-03  2.72e-04     0.6
    8    -272.3763562949441734     1.81e-06  6.00e-05  1.20e-03  6.33e-04     0.6
                 **** Energy Check signals convergence ****

               *****************************************************
               *                     SUCCESS                       *
               *           SCF CONVERGED AFTER   8 CYCLES          *
               *****************************************************

             **** ENERGY FILE WAS UPDATED (sp.en.tmp) ****

----------------
TOTAL SCF ENERGY
----------------

Total Energy       :       -272.37635629494417 Eh           -7411.73746 eV

Components:
Nuclear Repulsion  :        258.93929819529302 Eh            7046.09652 eV
Electronic Energy  :       -531.31565449023719 Eh          -14457.83398 eV
One Electron Energy:       -881.19428470558171 Eh          -23978.51553 eV
Two Electron Energy:        349.87863021534446 Eh            9520.68155 eV

Virial components:
Potential Energy   :       -542.42185346611143 Eh          -14760.04902 eV
Kinetic Energy     :        270.04549717116726 Eh            7348.31156 eV
Virial Ratio       :          2.00863135711646

DFT components:
N(Alpha)           :       24.999980189015 electrons
N(Beta)            :       24.999980189015 electrons
N(Total)           :       49.999960378031 electrons
E(X)               :      -38.202103055356 Eh       
E(C)               :       -1.642120988261 Eh       
E(XC)              :      -39.844224043618 Eh       

---------------
SCF CONVERGENCE
---------------

  Last Energy change         ...   -1.8103e-06  Tolerance :   1.0000e-05
  Last MAX-Density change    ...    1.2024e-03  Tolerance :   1.0000e-03
  Last RMS-Density change    ...    5.9975e-05  Tolerance :   1.0000e-04
  Last DIIS Error            ...    1.9611e-03  Tolerance :   5.0000e-04
  Last Orbital Gradient      ...    6.3318e-04  Tolerance :   1.0000e-04
  Last Orbital Rotation      ...    1.9871e-04  Tolerance :   1.0000e-04


----------------
ORBITAL ENERGIES
----------------

  NO   OCC          E(Eh)            E(eV) 
   0   2.0000     -18.739636      -509.9314 
   1   2.0000      -9.932266      -270.2707 
   2   2.0000      -9.882013      -268.9032 
   3   2.0000      -9.881083      -268.8779 
   4   2.0000      -9.877676      -268.7852 
   5   2.0000      -9.864259      -268.4201 
   6   2.0000      -0.917020       -24.9534 
   7   2.0000      -0.710748       -19.3404 
   8   2.0000      -0.677797       -18.4438 
   9   2.0000      -0.602295       -16.3893 
  10   2.0000      -0.533710       -14.5230 
  11   2.0000      -0.511962       -13.9312 
  12   2.0000      -0.466436       -12.6924 
  13   2.0000      -0.412771       -11.2321 
  14   2.0000      -0.390027       -10.6132 
  15   2.0000      -0.374142       -10.1809 
  16   2.0000      -0.368743       -10.0340 
  17   2.0000      -0.349591        -9.5129 
  18   2.0000      -0.321446        -8.7470 
  19   2.0000      -0.310050        -8.4369 
  20   2.0000      -0.301239        -8.1971 
  21   2.0000      -0.294509        -8.0140 
  22   2.0000      -0.291777        -7.9396 
  23   2.0000      -0.261610        -7.1188 
  24   2.0000      -0.211663        -5.7597 
  25   0.0000       0.021543         0.5862 
  26   0.0000       0.057168         1.5556 
  27   0.0000       0.067195         1.8285 
  28   0.0000       0.070377         1.9150 
  29   0.0000       0.090128         2.4525 
  30   0.0000       0.099293         2.7019 
  31   0.0000       0.115114         3.1324 
  32   0.0000       0.118991         3.2379 
  33   0.0000       0.131968         3.5910 
  34   0.0000       0.143063         3.8929 
  35   0.0000       0.153377         4.1736 
*Only the first 10 virtual orbitals were printed.

                    ********************************
                    * MULLIKEN POPULATION ANALYSIS *
                    ********************************

-----------------------
MULLIKEN ATOMIC CHARGES
-----------------------
   0 C :   -0.258884
   1 C :   -0.153186
   2 C :   -0.000531
   3 C :   -0.151760
   4 C :   -0.280789
   5 O :   -0.427350
   6 H :    0.098307
   7 H :    0.111998
   8 H :    0.088471
   9 H :    0.085655
  10 H :    0.080241
  11 H :    0.047729
  12 H :    0.087072
  13 H :    0.078167
  14 H :    0.099864
  15 H :    0.088276
  16 H :    0.110053
  17 H :    0.296666
Sum of atomic charges:   -0.0000000

--------------------------------
MULLIKEN REDUCED ORBITAL CHARGES
--------------------------------
  0 C s       :     3.074948  s :     3.074948
      pz      :     1.046717  p :     3.154698
      px      :     1.027927
      py      :     1.080055
      dz2     :     0.009703  d :     0.029237
      dxz     :     0.004392
      dyz     :     0.001907
      dx2y2   :     0.008065
      dxy     :     0.005171

  1 C s       :     3.053414  s :     3.053414
      pz      :     1.058132  p :     3.064430
      px      :     0.989165
      py      :     1.017133
      dz2     :     0.011659  d :     0.035343
      dxz     :     0.005422
      dyz     :     0.002243
      dx2y2   :     0.010489
      dxy     :     0.005529

  2 C s       :     3.086036  s :     3.086036
      pz      :     1.007143  p :     2.844912
      px      :     1.031797
      py      :     0.805972
      dz2     :     0.017781  d :     0.069583
      dxz     :     0.005740
      dyz     :     0.012910
      dx2y2   :     0.017486
      dxy     :     0.015666

  3 C s       :     3.049166  s :     3.049166
      pz      :     1.048281  p :     3.067364
      px      :     0.988611
      py      :     1.030472
      dz2     :     0.011537  d :     0.035230
      dxz     :     0.005405
      dyz     :     0.002260
      dx2y2   :     0.010409
      dxy     :     0.005618

  4 C s       :     3.085631  s :     3.085631
      pz      :     1.055611  p :     3.165728
      px      :     1.052567
      py      :     1.057550
      dz2     :     0.010130  d :     0.029430
      dxz     :     0.003734
      dyz     :     0.002064
      dx2y2   :     0.007094
      dxy     :     0.006408

  5 O s       :     3.791653  s :     3.791653
      pz      :     1.774808  p :     4.620473
      px      :     1.554966
      py      :     1.290699
      dz2     :     0.001727  d :     0.015223
      dxz     :     0.003043
      dyz     :     0.003133
      dx2y2   :     0.003190
      dxy     :     0.004130

  6 H s       :     0.901693  s :     0.901693

  7 H s       :     0.888002  s :     0.888002

  8 H s       :     0.911529  s :     0.911529

  9 H s       :     0.914345  s :     0.914345

 10 H s       :     0.919759  s :     0.919759

 11 H s       :     0.952271  s :     0.952271

 12 H s       :     0.912928  s :     0.912928

 13 H s       :     0.921833  s :     0.921833

 14 H s       :     0.900136  s :     0.900136

 15 H s       :     0.911724  s :     0.911724

 16 H s       :     0.889947  s :     0.889947

 17 H s       :     0.703334  s :     0.703334


------------------------
MULLIKEN OVERLAP CHARGES
------------------------
B(  0-C ,  1-C ) :   0.8849 B(  0-C ,  2-C ) :  -0.0908 B(  0-C ,  6-H ) :   0.7386 
B(  0-C ,  7-H ) :   0.7465 B(  0-C ,  8-H ) :   0.7483 B(  0-C ,  9-H ) :  -0.0533 
B(  1-C ,  2-C ) :   0.7483 B(  1-C ,  3-C ) :  -0.1147 B(  1-C ,  5-O ) :  -0.1334 
B(  1-C ,  7-H ) :  -0.0535 B(  1-C ,  9-H ) :   0.6660 B(  1-C , 10-H ) :   0.6816 
B(  1-C , 11-H ) :  -0.0854 B(  2-C ,  3-C ) :   0.7872 B(  2-C ,  4-C ) :  -0.0941 
B(  2-C ,  5-O ) :   0.6457 B(  2-C , 11-H ) :   0.6995 B(  2-C , 17-H ) :  -0.0688 
B(  3-C ,  4-C ) :   0.8506 B(  3-C ,  5-O ) :  -0.1041 B(  3-C , 11-H ) :  -0.1145 
B(  3-C , 12-H ) :   0.6704 B(  3-C , 13-H ) :   0.6254 B(  3-C , 14-H ) :  -0.0551 
B(  3-C , 15-H ) :  -0.0540 B(  4-C , 12-H ) :  -0.0657 B(  4-C , 14-H ) :   0.7477 
B(  4-C , 15-H ) :   0.7102 B(  4-C , 16-H ) :   0.7341 B(  5-O , 11-H ) :  -0.0728 
B(  5-O , 17-H ) :   0.5224 B(  6-H ,  8-H ) :  -0.0511 B(  9-H , 10-H ) :  -0.0531 
B( 14-H , 15-H ) :  -0.0560 


                     *******************************
                     * LOEWDIN POPULATION ANALYSIS *
                     *******************************

----------------------
LOEWDIN ATOMIC CHARGES
----------------------
   0 C :   -0.342161
   1 C :   -0.234843
   2 C :   -0.051277
   3 C :   -0.247795
   4 C :   -0.347419
   5 O :   -0.330417
   6 H :    0.117072
   7 H :    0.123323
   8 H :    0.113806
   9 H :    0.120882
  10 H :    0.116469
  11 H :    0.091812
  12 H :    0.119863
  13 H :    0.118286
  14 H :    0.117141
  15 H :    0.109826
  16 H :    0.124513
  17 H :    0.280917

-------------------------------
LOEWDIN REDUCED ORBITAL CHARGES
-------------------------------
  0 C s       :     2.943896  s :     2.943896
      pz      :     1.112136  p :     3.327484
      px      :     1.082621
      py      :     1.132727
      dz2     :     0.022988  d :     0.070781
      dxz     :     0.010918
      dyz     :     0.004796
      dx2y2   :     0.019690
      dxy     :     0.012391

  1 C s       :     2.914770  s :     2.914770
      pz      :     1.102540  p :     3.233816
      px      :     1.047052
      py      :     1.084225
      dz2     :     0.027105  d :     0.086257
      dxz     :     0.013733
      dyz     :     0.005220
      dx2y2   :     0.025357
      dxy     :     0.014842

  2 C s       :     2.889228  s :     2.889228
      pz      :     1.064659  p :     3.003371
      px      :     1.063123
      py      :     0.875589
      dz2     :     0.041382  d :     0.158677
      dxz     :     0.012306
      dyz     :     0.028997
      dx2y2   :     0.038631
      dxy     :     0.037361

  3 C s       :     2.920307  s :     2.920307
      pz      :     1.101866  p :     3.240659
      px      :     1.050184
      py      :     1.088609
      dz2     :     0.026998  d :     0.086828
      dxz     :     0.013698
      dyz     :     0.005378
      dx2y2   :     0.025334
      dxy     :     0.015421

  4 C s       :     2.945876  s :     2.945876
      pz      :     1.117615  p :     3.330496
      px      :     1.094934
      py      :     1.117948
      dz2     :     0.024013  d :     0.071047
      dxz     :     0.009076
      dyz     :     0.005271
      dx2y2   :     0.017343
      dxy     :     0.015344

  5 O s       :     3.542849  s :     3.542849
      pz      :     1.805716  p :     4.761026
      px      :     1.597441
      py      :     1.357869
      dz2     :     0.002653  d :     0.026543
      dxz     :     0.004240
      dyz     :     0.005475
      dx2y2   :     0.006541
      dxy     :     0.007634

  6 H s       :     0.882928  s :     0.882928

  7 H s       :     0.876677  s :     0.876677

  8 H s       :     0.886194  s :     0.886194

  9 H s       :     0.879118  s :     0.879118

 10 H s       :     0.883531  s :     0.883531

 11 H s       :     0.908188  s :     0.908188

 12 H s       :     0.880137  s :     0.880137

 13 H s       :     0.881714  s :     0.881714

 14 H s       :     0.882859  s :     0.882859

 15 H s       :     0.890174  s :     0.890174

 16 H s       :     0.875487  s :     0.875487

 17 H s       :     0.719083  s :     0.719083


---------------------------------
LOEWDIN BOND ORDERS (THRESH 0.050000)
---------------------------------
B(  0-C ,  1-C ) :   1.1283 B(  0-C ,  2-C ) :   0.0557 B(  0-C ,  6-H ) :   0.9395 
B(  0-C ,  7-H ) :   0.9367 B(  0-C ,  8-H ) :   0.9410 B(  1-C ,  2-C ) :   1.0672 
B(  1-C ,  3-C ) :   0.0588 B(  1-C ,  5-O ) :   0.0577 B(  1-C ,  9-H ) :   0.9014 
B(  1-C , 10-H ) :   0.9026 B(  2-C ,  3-C ) :   1.0673 B(  2-C ,  4-C ) :   0.0556 
B(  2-C ,  5-O ) :   1.1960 B(  2-C , 11-H ) :   0.8763 B(  3-C ,  4-C ) :   1.1274 
B(  3-C ,  5-O ) :   0.0729 B(  3-C , 12-H ) :   0.9018 B(  3-C , 13-H ) :   0.8971 
B(  4-C , 14-H ) :   0.9396 B(  4-C , 15-H ) :   0.9359 B(  4-C , 16-H ) :   0.9367 
B(  5-O , 17-H ) :   0.8863 

------------------------------------------
LOEWDIN REDUCED ORBITAL POPULATIONS PER MO
-------------------------------------------
THRESHOLD FOR PRINTING IS 0.1%%
                      0         1         2         3         4         5   
                 -18.73964  -9.93227  -9.88201  -9.88108  -9.87768  -9.86426
                   2.00000   2.00000   2.00000   2.00000   2.00000   2.00000
                  --------  --------  --------  --------  --------  --------
 0 C  s               0.0       0.0       0.0       0.0       0.0      99.7
 1 C  s               0.0       0.0       0.0       0.0      99.6       0.0
 2 C  s               0.0      99.6       0.0       0.0       0.0       0.0
 3 C  s               0.0       0.0      99.6       0.1       0.0       0.0
 4 C  s               0.0       0.0       0.1      99.6       0.0       0.0
 5 O  s              99.9       0.0       0.0       0.0       0.0       0.0

                      6         7         8         9        10        11   
                  -0.91702  -0.71075  -0.67780  -0.60230  -0.53371  -0.51196
                   2.00000   2.00000   2.00000   2.00000   2.00000   2.00000
                  --------  --------  --------  --------  --------  --------
 0 C  s               0.1       5.5      13.8      16.7       7.4       3.0
 0 C  pz              0.0       0.2       0.2       0.0       0.6       1.9
 0 C  px              0.1       1.2       1.1       0.4       3.1       1.4
 0 C  py              0.0       0.2       0.2       0.0       0.3       1.9
 1 C  s               0.8      13.7      14.6       0.0       5.1       9.7
 1 C  pz              0.1       0.3       0.3       0.1       0.3       4.0
 1 C  px              0.6       0.3       1.3      10.0       1.8       0.0
 1 C  py              0.6       0.2       0.3       0.0       0.0       6.0
 1 C  dxz             0.0       0.0       0.0       0.1       0.0       0.0
 1 C  dxy             0.0       0.0       0.0       0.1       0.1       0.0
 2 C  s              10.5      11.6       0.3      10.4       0.6       6.5
 2 C  pz              0.8       0.2       0.0       0.0       0.1       4.4
 2 C  px              0.0       0.0       8.3       0.1       7.4       0.1
 2 C  py              7.6       5.4       0.0       1.2       0.4       3.8
 2 C  dz2             0.1       0.0       0.0       0.0       0.0       0.0
 2 C  dxz             0.0       0.0       0.1       0.0       0.1       0.0
 2 C  dyz             0.2       0.1       0.0       0.0       0.0       0.1
 2 C  dx2y2           0.5       0.2       0.0       0.0       0.0       0.0
 2 C  dxy             0.0       0.0       0.1       0.0       0.1       0.1
 3 C  s               0.9      17.5      10.3       1.0      12.4       1.2
 3 C  pz              0.1       0.4       0.3       0.1       1.4       1.9
 3 C  px              0.6       0.1       3.0       8.6       0.8       0.1
 3 C  py              0.7       0.2       0.2       0.0       1.4       2.0
 3 C  dxz             0.0       0.0       0.0       0.1       0.0       0.0
 3 C  dxy             0.0       0.0       0.0       0.1       0.0       0.0
 4 C  s               0.1       9.0      15.9      13.2       8.3       0.2
 4 C  pz              0.0       0.2       0.2       0.1       1.6       0.5
 4 C  px              0.1       1.4       0.6       0.9       5.2       0.0
 4 C  py              0.0       0.2       0.1       0.1       1.3       0.3
 5 O  s              57.9       4.5       0.0       1.0       0.0       0.8
 5 O  pz              1.1       0.1       0.0       0.0       0.0       0.6
 5 O  px              1.6       0.5       0.4       0.5       1.5       2.6
 5 O  py              0.7       2.3       0.2       4.7       1.9      13.8
 5 O  dyz             0.0       0.0       0.0       0.0       0.0       0.1
 6 H  s               0.0       0.9       2.7       4.9       3.5       0.9
 7 H  s               0.1       0.9       2.7       4.2       2.6       2.2
 8 H  s               0.0       1.0       2.8       4.3       3.1       2.3
 9 H  s               0.2       2.5       2.8       0.0       1.9       6.2
10 H  s               0.1       2.8       2.8       0.0       1.4       7.3
11 H  s               1.3       2.3       0.1       2.2       0.3       5.3
12 H  s               0.2       3.2       1.9       0.3       5.3       1.5
13 H  s               0.1       3.7       1.9       0.4       5.3       1.5
14 H  s               0.0       1.8       3.3       3.6       4.3       0.3
15 H  s               0.0       1.5       3.5       4.3       4.1       0.1
16 H  s               0.0       1.7       3.3       4.2       3.8       0.0
17 H  s              12.2       2.0       0.2       1.8       0.8       4.6

                     12        13        14        15        16        17   
                  -0.46644  -0.41277  -0.39003  -0.37414  -0.36874  -0.34959
                   2.00000   2.00000   2.00000   2.00000   2.00000   2.00000
                  --------  --------  --------  --------  --------  --------
 0 C  pz              0.8       0.9       8.3       0.1      12.4       5.0
 0 C  px              0.0       2.0       2.7       0.4       4.7      15.2
 0 C  py              0.8       0.6       0.1      22.7       1.4       0.1
 0 C  dxy             0.0       0.0       0.0       0.0       0.0       0.1
 1 C  s               0.0       0.0       0.0       0.0       0.5       0.4
 1 C  pz              4.6       3.2      10.5       1.1       1.6       3.5
 1 C  px              0.1       0.3       1.2       6.1       6.9       1.1
 1 C  py              3.4       0.8       0.1      13.5       5.0       0.5
 2 C  s               1.3       0.3       0.1       0.2       0.0       1.7
 2 C  pz             18.2       2.1       0.3       1.3      11.1       0.7
 2 C  px              1.1       9.2       3.6       1.2       0.1       0.4
 2 C  py              5.7       0.0       0.2       8.3       2.7       0.3
 2 C  dz2             0.1       0.0       0.0       0.0       0.1       0.1
 2 C  dyz             0.1       0.0       0.0       0.1       0.0       0.0
 2 C  dx2y2           0.1       0.1       0.0       0.3       0.1       0.1
 2 C  dxy             0.1       0.0       0.1       0.0       0.0       0.0
 3 C  s               0.6       0.1       0.0       0.0       0.2       0.6
 3 C  pz              7.9       0.5      13.5       0.1       0.0       1.1
 3 C  px              1.3       2.9       0.6       4.2       9.4       3.0
 3 C  py              0.0      22.4       1.0       0.1       0.6       1.2
 3 C  dxz             0.1       0.0       0.0       0.0       0.0       0.1
 4 C  pz              2.3       0.2      17.9       0.8       8.1       3.7
 4 C  px              0.3       1.8       3.6       1.1       4.0      22.6
 4 C  py              0.2      18.5       3.1       2.6       0.3       2.2
 4 C  dz2             0.0       0.0       0.1       0.0       0.1       0.1
 4 C  dxz             0.0       0.0       0.0       0.0       0.1       0.1
 4 C  dxy             0.0       0.0       0.0       0.0       0.0       0.2
 5 O  s               1.0       1.9       0.1       0.1       1.1       0.4
 5 O  pz              3.4       0.1       0.1       1.1       6.3       1.4
 5 O  px              7.9       6.9       0.0       0.2       0.1       1.6
 5 O  py             13.3       0.9       0.7       9.8       0.3       0.1
 6 H  s               0.0       1.5       2.3       2.2       0.6       9.5
 7 H  s               0.4       0.1       0.4       9.9       0.7       0.1
 8 H  s               0.3       0.1       3.2       0.3       6.8       2.1
 9 H  s               1.3       1.2       4.1       0.7       2.3       0.7
10 H  s               1.6       0.0       0.3       6.9       2.1       0.0
11 H  s               9.8       0.4       0.3       0.1       4.7       1.9
12 H  s               3.8       0.2       5.4       0.0       0.3       0.0
13 H  s               0.0       9.4       1.4       0.0       0.3       0.1
14 H  s               0.7       0.2       8.1       0.4       4.0       2.5
15 H  s               0.0       6.2       4.5       1.4       0.0       0.0
16 H  s               0.4       3.9       1.5       0.0       0.2      14.9
17 H  s               6.7       0.3       0.3       2.0       0.3       0.2

                     18        19        20        21        22        23   
                  -0.32145  -0.31005  -0.30124  -0.29451  -0.29178  -0.26161
                   2.00000   2.00000   2.00000   2.00000   2.00000   2.00000
                  --------  --------  --------  --------  --------  --------
 0 C  s               0.0       0.1       0.1       0.3       0.1       0.0
 0 C  pz              5.4       0.8       7.9       0.1      10.6       0.4
 0 C  px              3.0       2.8       0.1       8.6       2.0       4.8
 0 C  py              0.5       3.0      12.2       2.1       9.9       0.0
 0 C  dz2             0.1       0.0       0.1       0.0       0.6       0.1
 0 C  dx2y2           0.0       0.1       0.4       0.0       0.2       0.1
 0 C  dxy             0.0       0.0       0.0       0.0       0.2       0.1
 1 C  s               0.3       0.0       0.1       0.1       0.0       0.6
 1 C  pz              0.6       0.4       8.6       0.5      12.7       2.7
 1 C  px              0.0       3.6       0.4       5.3       1.1      12.0
 1 C  py              0.6       2.2       8.0       4.4       7.1       1.4
 1 C  dz2             0.1       0.0       0.2       0.0       0.8       0.1
 1 C  dxz             0.0       0.0       0.0       0.1       0.0       0.1
 1 C  dx2y2           0.0       0.1       0.6       0.1       0.2       0.0
 1 C  dxy             0.0       0.0       0.0       0.0       0.2       0.2
 2 C  s               0.2       0.0       0.7       0.1       0.0       0.3
 2 C  pz              1.8       0.3       0.9       2.6       0.7       4.4
 2 C  px              2.1       0.1       0.5       2.1       1.7      13.5
 2 C  py              0.0       1.4       5.7       0.2       0.1       0.1
 2 C  dz2             0.0       0.0       0.0       0.2       0.2       0.4
 2 C  dxz             0.0       0.1       0.0       0.0       0.1       0.1
 2 C  dx2y2           0.1       0.0       0.5       0.0       0.0       0.0
 2 C  dxy             0.2       0.0       0.0       0.0       0.0       0.7
 3 C  pz              0.0      18.9       0.2       7.9       0.1       0.0
 3 C  px              0.1       2.7       0.0       3.6       0.9       6.1
 3 C  py              8.8       1.8       4.5       5.8       0.6       0.6
 3 C  dz2             0.0       0.5       0.0       0.6       0.0       0.1
 3 C  dxz             0.0       0.0       0.0       0.0       0.0       0.2
 3 C  dx2y2           0.3       0.2       0.3       0.2       0.0       0.0
 3 C  dxy             0.2       0.0       0.0       0.0       0.0       0.1
 4 C  s               0.0       0.3       0.0       0.1       0.0       0.2
 4 C  pz              0.0      17.6       0.0       2.3       0.2       0.0
 4 C  px              0.2       3.6       0.1       3.1       0.7       5.2
 4 C  py             22.0       0.6       2.0       2.0       0.3       0.1
 4 C  dz2             0.0       0.5       0.0       0.4       0.0       0.0
 4 C  dx2y2           0.4       0.0       0.1       0.0       0.0       0.0
 4 C  dxy             0.2       0.0       0.0       0.0       0.0       0.0
 5 O  s               2.0       1.4       1.0       0.7       0.0       3.5
 5 O  pz              0.0       5.1      12.5       0.0       0.1      11.5
 5 O  px             13.2       2.5       0.7       7.8       0.8      10.5
 5 O  py              0.6       0.5       4.7       4.1       1.8       2.5
 6 H  s               4.2       0.0       4.6       1.5       1.0       3.7
 7 H  s               0.1       1.8       5.0       1.6      10.8       0.1
 8 H  s               3.4       0.2       3.4       0.1      10.1       0.8
 9 H  s               1.1       0.1       4.4       0.2      12.0       2.1
10 H  s               0.5       1.7       4.4       2.5       9.4       0.1
11 H  s               0.5       0.4       0.1       3.1       1.5       4.9
12 H  s               0.0      12.5       0.0       8.1       0.0       0.5
13 H  s               7.0       0.1       3.1       8.4       0.2       0.2
14 H  s               0.1      10.9       0.0       3.7       0.1       0.1
15 H  s              12.8       0.2       1.3       3.9       0.3       0.0
16 H  s               6.1       0.2       0.3       0.7       0.5       1.6
17 H  s               0.9       0.4       0.0       0.2       0.1       2.7

                     24        25        26        27        28        29   
                  -0.21166   0.02154   0.05717   0.06719   0.07038   0.09013
                   2.00000   0.00000   0.00000   0.00000   0.00000   0.00000
                  --------  --------  --------  --------  --------  --------
 0 C  s               0.0       0.8       5.6       4.1       3.0       4.3
 0 C  pz              0.0       0.0       1.3       1.1       0.9       0.4
 0 C  px              0.4       0.1       1.6       0.2       0.8       0.5
 0 C  py              0.5       0.1       0.1       0.0       0.0       0.1
 0 C  dxz             0.0       0.0       0.1       0.0       0.1       0.1
 0 C  dxy             0.0       0.0       0.2       0.0       0.0       0.1
 1 C  s               0.0       0.7       6.5       0.1       2.6       0.1
 1 C  pz              0.0       0.0       0.5       1.3       2.9       2.0
 1 C  px              0.1       0.0       0.1       0.5       0.1       0.3
 1 C  py              0.0       0.6       4.5       0.3       0.0       2.0
 1 C  dz2             0.0       0.1       0.0       0.1       0.2       0.2
 1 C  dx2y2           0.0       0.1       0.1       0.0       0.1       0.2
 1 C  dxy             0.0       0.0       0.0       0.1       0.1       0.0
 2 C  s               0.1       0.7       1.7       0.1       1.1       0.6
 2 C  pz              3.3       2.7       1.1       3.0       3.2       0.3
 2 C  px              1.7       0.0       0.1       0.2       0.3       0.0
 2 C  py              0.4       1.4       0.0       0.1       0.3       6.9
 2 C  dz2             0.8       0.1       0.0       0.3       0.1       0.3
 2 C  dxz             0.0       0.0       0.1       0.1       0.1       0.0
 2 C  dyz             0.6       0.0       0.0       0.1       0.0       0.4
 2 C  dx2y2           0.0       0.3       0.0       0.0       0.0       0.8
 2 C  dxy             0.5       0.0       0.0       0.1       0.1       0.0
 3 C  s               1.2       1.8       1.0       7.8       0.3       0.1
 3 C  pz              0.8       0.2       0.0       3.5       1.7       2.8
 3 C  px              4.6       0.1       0.3       0.0       0.2       0.2
 3 C  py              2.5       0.9       3.1       1.9       0.8       1.9
 3 C  dz2             0.0       0.0       0.0       0.2       0.3       0.2
 3 C  dxz             0.0       0.0       0.0       0.1       0.1       0.1
 3 C  dyz             0.0       0.1       0.1       0.0       0.0       0.1
 3 C  dx2y2           0.1       0.1       0.0       0.1       0.0       0.3
 3 C  dxy             0.0       0.1       0.2       0.0       0.0       0.0
 4 C  s               0.1       8.2       2.0       2.5       2.4       5.4
 4 C  pz              0.0       0.1       0.5       0.2       6.0       1.5
 4 C  px              0.2       1.1       0.0       1.8       0.1       0.6
 4 C  py              0.0       1.6       1.4       0.8       1.5       0.7
 4 C  dz2             0.0       0.0       0.0       0.0       0.4       0.0
 4 C  dxz             0.0       0.0       0.0       0.1       0.0       0.0
 4 C  dxy             0.0       0.2       0.1       0.1       0.0       0.5
 5 O  s               0.0       5.7       0.3       0.9       1.3       2.6
 5 O  pz             46.8       0.4       0.8       0.5       0.3       1.9
 5 O  px             20.6       4.8       1.5       0.1       0.1       0.9
 5 O  py              4.8       0.4       0.3       0.2       0.3       1.1
 6 H  s               0.0       0.4       6.7       1.4       6.7       2.4
 7 H  s               0.1       0.7       0.7       2.3       2.9       3.6
 8 H  s               0.0       0.6       8.9       8.3       0.1       4.2
 9 H  s               0.3       0.3       4.8       3.7      12.2       4.3
10 H  s               0.1       2.9      16.3       0.3       0.3       7.4
11 H  s               6.4       5.1       4.4       7.2      11.1       2.0
12 H  s               0.6       1.0       0.1      19.3       3.3       4.6
13 H  s               1.0       3.5       8.6       9.6       3.2       8.7
14 H  s               0.1       4.6       0.1       0.1      19.5       9.3
15 H  s               0.2      10.2       7.2       0.1       1.4       6.1
16 H  s               0.4       4.8       0.5      10.3       1.7       1.0
17 H  s               0.0      32.0       6.1       4.3       5.4       5.3

                     30        31        32        33        34        35   
                   0.09929   0.11511   0.11899   0.13197   0.14306   0.15338
                   0.00000   0.00000   0.00000   0.00000   0.00000   0.00000
                  --------  --------  --------  --------  --------  --------
 0 C  s               7.4       0.5       0.1       1.9       1.5       0.1
 0 C  pz              0.8       6.8       4.0       0.1       2.5       0.1
 0 C  px              0.7       1.2       0.9       4.4       3.3       0.4
 0 C  py              0.4       1.1       3.2      11.0       0.2       0.7
 0 C  dz2             0.0       0.1       0.6       0.0       0.1       0.0
 0 C  dxz             0.1       0.0       0.3       0.4       0.0       0.4
 0 C  dyz             0.1       0.1       0.0       0.2       0.3       0.1
 0 C  dx2y2           0.1       0.0       0.1       0.3       0.0       0.0
 0 C  dxy             0.0       0.2       0.0       0.4       0.0       0.1
 1 C  s               2.8       1.9       0.0       0.2       7.5       0.0
 1 C  pz              0.1       0.3       3.7       0.5       2.6       1.7
 1 C  px              0.4       0.3       1.3       0.6       0.3       0.0
 1 C  py              0.1       0.6       3.0       0.2       0.3       6.1
 1 C  dz2             0.0       0.1       0.3       0.0       0.0       0.3
 1 C  dxz             0.2       0.0       0.7       0.2       0.2       0.0
 1 C  dyz             0.0       0.1       0.0       0.3       0.1       0.1
 1 C  dx2y2           0.3       0.1       0.1       0.2       0.0       0.2
 1 C  dxy             0.2       0.0       0.0       0.4       0.0       0.0
 2 C  s               2.3       0.7       1.1       3.4       0.0       0.7
 2 C  pz              1.6       0.6       1.2       1.1       0.2       0.3
 2 C  px              0.1       0.4       0.4       0.2       1.1       1.4
 2 C  py              1.5       0.0       1.3       0.2       0.9       0.0
 2 C  dxz             0.0       0.2       0.0       0.0       0.3       1.3
 2 C  dyz             0.1       0.0       0.1       0.1       0.1       0.0
 2 C  dx2y2           0.7       0.1       0.0       0.0       0.1       0.0
 2 C  dxy             0.1       0.1       0.2       0.2       0.1       0.1
 3 C  s               2.2       2.1       0.1       1.1       5.7       0.0
 3 C  pz              0.9       1.1       0.8       0.6       1.9       3.7
 3 C  px              1.1       0.2       0.3       1.9       0.2       0.1
 3 C  py              0.4       0.7       0.5       1.8       0.3       7.7
 3 C  dz2             0.0       0.1       0.3       0.1       0.0       0.2
 3 C  dxz             0.3       0.2       0.1       0.4       0.0       0.5
 3 C  dyz             0.1       0.2       0.2       0.0       0.1       0.3
 3 C  dx2y2           0.8       0.0       0.0       0.0       0.0       0.1
 3 C  dxy             0.1       0.0       0.1       0.1       0.0       0.0
 4 C  s               4.9       1.4       1.3       0.0       1.1       0.0
 4 C  pz              1.4       5.4       1.6       0.7       0.3       3.0
 4 C  px              1.4       3.6       1.7       2.2       2.1       0.2
 4 C  py              4.8       1.5       5.0       0.2       1.0       3.7
 4 C  dz2             0.0       0.4       0.0       0.2       0.0       0.1
 4 C  dxz             0.1       0.4       0.2       0.2       0.1       0.3
 4 C  dyz             0.3       0.0       0.1       0.0       0.2       0.3
 4 C  dx2y2           0.2       0.0       0.0       0.0       0.0       0.1
 4 C  dxy             0.1       0.2       0.3       0.0       0.0       0.0
 5 O  s               0.1       0.0       0.8       0.4       0.1       0.4
 5 O  pz              0.5       0.0       0.2       0.0       0.0       0.2
 5 O  px              0.2       0.0       0.0       0.1       0.0       0.4
 5 O  py              1.2       0.2       0.3       0.1       0.4       0.1
 6 H  s              12.6       7.3       0.7      12.1      15.3       0.3
 7 H  s               2.4       1.6       7.6      27.8       0.8       0.9
 8 H  s               1.1      14.8      11.4       0.5       1.0       0.1
 9 H  s               3.3       2.6       8.3       0.2      16.6       4.2
10 H  s               0.5       3.5       8.5       0.3       4.8      14.7
11 H  s               6.2       2.7       4.2       6.5       0.3       1.8
12 H  s               6.6       6.3       0.9       0.2      12.2       8.6
13 H  s               0.5       0.1       0.5       8.6       4.2      17.0
14 H  s               0.1      17.1       1.0       1.7       0.0       5.8
15 H  s               0.5       1.8      16.7       0.0       0.1       9.0
16 H  s              23.8       8.7       2.1       5.1       8.9       0.1
17 H  s               1.1       0.0       1.5       0.1       0.2       1.4

                     36        37        38        39        40        41   
                   0.16396   0.18215   0.19709   0.20581   0.22586   0.23100
                   0.00000   0.00000   0.00000   0.00000   0.00000   0.00000
                  --------  --------  --------  --------  --------  --------
 0 C  s               0.2       0.1       0.2       0.4       0.2       1.1
 0 C  pz              3.2       1.4       3.1       1.7       0.2       3.1
 0 C  px              0.9       6.7       1.4       3.2       0.7      14.2
 0 C  py              7.5       0.8       0.5       0.2       0.9       2.8
 0 C  dz2             0.4       0.5       0.0       0.0       0.1       0.2
 0 C  dxz             0.0       0.2       0.3       0.3       0.1       1.8
 0 C  dyz             0.0       0.0       0.5       0.1       0.2       0.5
 0 C  dx2y2           0.5       0.9       0.0       0.3       0.8       0.6
 0 C  dxy             0.3       0.3       0.1       0.2       0.0       2.0
 1 C  s               1.1       2.6       0.1       2.6       2.6       1.4
 1 C  pz              2.5       4.6       1.7       3.5       0.6       3.1
 1 C  px              0.3       0.1      12.4       1.0       7.0      14.4
 1 C  py              1.7       2.7       0.9       6.3       2.1       1.1
 1 C  dz2             0.1       0.3       0.0       0.7       0.4       0.0
 1 C  dxz             0.7       0.0       1.5       0.0       0.2       0.8
 1 C  dyz             0.0       0.5       0.2       1.8       0.1       0.3
 1 C  dx2y2           0.0       1.7       0.0       0.1       0.7       0.2
 1 C  dxy             0.1       0.2       0.9       0.9       1.6       2.0
 2 C  s               0.6       2.6       1.6       3.8      12.5       2.6
 2 C  pz              2.1       0.7       0.3       0.5      10.9       2.8
 2 C  px              0.1       0.0      15.1      14.4       0.3       0.2
 2 C  py              0.5       7.2      11.6      11.5       3.0       0.6
 2 C  dz2             0.4       0.2       0.2       0.4       1.0       0.3
 2 C  dxz             0.0       0.0       1.1       1.7       0.0       0.0
 2 C  dyz             0.1       0.0       1.6       1.4       0.4       0.0
 2 C  dx2y2           0.0       2.4       0.7       0.7       0.1       0.2
 2 C  dxy             0.0       0.0       2.1       1.0       0.0       0.0
 3 C  s               0.4       5.3       0.8       0.8       0.3       2.9
 3 C  pz              0.0       7.1       2.4       2.5       0.1       1.8
 3 C  px              0.3       1.3       2.5       5.1      20.9       4.7
 3 C  py              0.3       3.6       4.6       1.4       0.6       2.7
 3 C  dz2             0.1       0.5       0.5       0.1       0.3       0.2
 3 C  dxz             0.4       0.0       0.0       0.8       1.3       0.5
 3 C  dyz             0.0       0.8       1.1       0.4       0.0       0.3
 3 C  dx2y2           0.1       2.1       0.0       0.1       0.3       0.3
 3 C  dxy             0.0       0.3       1.5       0.3       4.0       0.1
 4 C  s               0.3       0.8       0.4       0.0       0.4       0.4
 4 C  pz              2.5       2.7       0.2       1.5       1.9       1.2
 4 C  px              1.4      11.9       0.5       0.9       3.7       8.6
 4 C  py              1.8       1.4       1.5       0.6       1.8       2.3
 4 C  dz2             0.2       0.8       0.0       0.0       0.0       0.1
 4 C  dxz             0.0       0.7       0.0       0.0       0.6       1.4
 4 C  dyz             0.0       0.0       0.1       0.3       0.7       0.1
 4 C  dx2y2           0.1       1.6       0.3       0.0       0.1       1.6
 4 C  dxy             0.1       0.9       0.0       0.0       1.0       0.6
 5 O  s               0.2       0.5       0.4       2.0       0.4       0.1
 5 O  pz              0.2       0.1       0.2       0.6       0.3       0.1
 5 O  px              2.6       0.0       0.0       1.4       0.1       0.0
 5 O  py              1.2       1.8       7.9       6.0       0.7       3.1
 5 O  dxz             0.0       0.0       0.1       0.2       0.0       0.0
 5 O  dyz             0.0       0.0       0.2       0.2       0.1       0.0
 5 O  dx2y2           0.0       0.0       0.2       0.4       0.3       0.2
 5 O  dxy             0.0       0.0       0.3       0.1       0.0       0.0
 6 H  s               0.3       2.0       0.2       1.3       0.6       1.7
 7 H  s              13.3       0.4       0.3       0.1       2.1       0.9
 8 H  s              11.0       1.0       3.1       1.9       0.8       0.7
 9 H  s               2.5       1.2       2.8       1.7       0.7       1.7
10 H  s               6.8       1.7       0.8       0.9       0.1       0.5
11 H  s               5.8       5.7       0.4       1.1       2.0       0.7
12 H  s               0.3       1.8       1.2       3.2       1.2       0.3
13 H  s               1.5       2.3       0.6       1.3       0.3       0.3
14 H  s               3.8       1.4       0.2       2.8       1.5       0.3
15 H  s               8.7       0.4       2.4       0.1       1.6       1.7
16 H  s               1.5       0.7       0.8       0.2       2.4       0.2
17 H  s               8.6       0.4       3.3       0.9       0.4       1.4

                     42        43        44        45        46        47   
                   0.38394   0.38898   0.41166   0.42032   0.42313   0.46192
                   0.00000   0.00000   0.00000   0.00000   0.00000   0.00000
                  --------  --------  --------  --------  --------  --------
 0 C  s               0.9       0.1       0.0       0.2       0.7       2.6
 0 C  pz              1.9       8.5       1.8      12.4       0.7       2.4
 0 C  px             10.2       0.0       0.2       2.3       6.0       3.3
 0 C  py              3.0       0.3       4.0       4.0      15.8       5.2
 0 C  dz2             0.0       2.5       0.2       4.1       1.3       0.0
 0 C  dxz             1.3       0.0       0.1       0.1       0.3       0.1
 0 C  dyz             0.2       0.4       0.3       0.3       1.3       0.6
 0 C  dx2y2           0.4       0.4       1.5       0.9       2.0       0.2
 0 C  dxy             0.9       0.0       0.4       0.0       0.5       0.2
 1 C  s               0.6       0.0       0.2       0.3       0.1       2.7
 1 C  pz              4.8       1.1       0.0       0.5       3.3       5.4
 1 C  px              7.9       2.9       1.6       1.2       1.3       3.0
 1 C  py              1.7       1.0       0.5       4.1       1.2      10.4
 1 C  dz2             0.9       1.6       0.0       1.6       0.6       0.3
 1 C  dxz             0.3       0.3       0.2       0.0       0.8       0.1
 1 C  dyz             0.5       0.0       0.0       0.5       0.5       1.9
 1 C  dx2y2           0.6       0.0       0.6       0.6       0.5       1.6
 1 C  dxy             0.1       0.2       0.6       0.8       0.0       0.2
 2 C  s               0.1       0.0       0.1       1.3       2.0       0.4
 2 C  pz              0.3       0.0       0.3       1.0       3.2       0.3
 2 C  px              0.5       8.7      10.4       0.2       0.2       0.6
 2 C  py              1.3       0.2       0.2       5.0      11.3       0.5
 2 C  dz2             0.5       0.0       0.0       0.8       1.2       0.3
 2 C  dxz             0.0       0.9       0.1       0.0       0.0       0.5
 2 C  dx2y2           0.4       0.1       0.0       0.1       0.2       0.1
 2 C  dxy             0.0       0.0       0.3       0.1       0.1       1.5
 3 C  s               0.3       0.1       0.2       0.1       0.4       2.5
 3 C  pz              2.9       4.4       0.5       0.5       1.5       4.1
 3 C  px              9.7       0.4       0.3       0.5       2.5       4.9
 3 C  py              4.0       0.2       1.2       2.1       2.9       7.1
 3 C  dz2             0.1       3.6       0.6       0.4       0.0       0.4
 3 C  dxz             0.8       0.3       0.0       0.0       0.6       0.4
 3 C  dyz             0.8       0.0       0.0       0.5       0.5       1.0
 3 C  dx2y2           0.8       0.0       1.7       0.0       0.0       0.8
 3 C  dxy             0.2       0.0       0.8       0.2       0.2       0.0
 4 C  s               1.4       0.2       0.2       0.4       0.9       1.6
 4 C  pz              8.5       9.3       1.6       7.4       0.4       3.4
 4 C  px              8.8       2.5       0.6       3.3       3.3       2.7
 4 C  py              3.8       1.4      19.9       0.3       3.8       2.2
 4 C  dz2             0.9       4.7       0.5       2.2       0.1       0.0
 4 C  dxz             1.0       0.2       0.2       0.0       0.1       0.1
 4 C  dyz             0.4       0.0       1.4       0.3       0.7       0.3
 4 C  dx2y2           0.6       0.2       3.2       0.1       0.1       0.0
 4 C  dxy             0.5       0.1       1.6       0.2       0.1       0.1
 5 O  s               0.2       0.0       0.2       0.7       0.0       0.3
 5 O  pz              0.1       0.0       0.1       0.9       0.7       0.1
 5 O  px              0.0       0.2       0.9       0.0       0.9       0.7
 5 O  py              0.2       0.3       0.8       0.4       1.2       0.7
 5 O  dz2             0.0       0.0       0.0       0.1       0.1       0.0
 5 O  dxz             0.0       0.1       0.0       0.0       0.0       0.3
 5 O  dyz             0.0       0.0       0.0       0.0       0.0       0.1
 5 O  dx2y2           0.0       0.0       0.0       0.0       0.6       0.1
 5 O  dxy             0.0       0.1       0.0       0.0       0.0       0.7
 6 H  s               2.0       2.3       4.0       0.6       3.7       0.9
 7 H  s               1.1       0.0       2.8       6.1       8.6       1.3
 8 H  s               0.1       7.2       0.7       9.1       2.2       0.1
 9 H  s               2.9       3.6       0.2       2.8       2.0       1.5
10 H  s               0.3       1.3       1.5       6.4       1.5       3.8
11 H  s               1.8       0.0       0.2       2.5       2.0       1.0
12 H  s               0.5       8.6       1.2       0.7       0.3       1.8
13 H  s               1.4       1.5       6.6       1.0       0.5       1.8
14 H  s               3.3      10.5       1.0       4.2       0.4       0.4
15 H  s               0.7       3.7      14.1       0.8       0.8       0.2
16 H  s               0.3       2.6       6.1       2.1       0.6       1.1
17 H  s               0.0       0.9       1.2       0.6       0.7       7.2

                     48        49        50        51        52        53   
                   0.48717   0.52506   0.53069   0.57643   0.60623   0.61423
                   0.00000   0.00000   0.00000   0.00000   0.00000   0.00000
                  --------  --------  --------  --------  --------  --------
 0 C  s               0.1       0.7       1.2       2.4       3.7       3.5
 0 C  pz              3.4       0.2       7.8       0.7       3.7       0.3
 0 C  px              0.8       3.5       6.0       7.3       3.5       0.8
 0 C  py              0.9       1.5       5.2       1.4       1.7       0.6
 0 C  dz2             0.3       0.0       0.6       0.4       0.0       0.3
 0 C  dxz             0.3       0.5       0.3       0.1       0.0       0.1
 0 C  dyz             0.0       0.6       0.5       0.1       0.1       0.0
 0 C  dx2y2           0.0       0.5       0.2       0.2       0.0       0.0
 0 C  dxy             0.1       0.5       0.5       0.1       0.1       0.0
 1 C  s               0.1       0.4       6.6       1.5       0.1       1.3
 1 C  pz              1.6       2.4       1.3      10.4       0.4       1.9
 1 C  px              0.4       1.2       3.8       0.5      26.8       0.3
 1 C  py              1.4       0.3       5.2       0.2       0.1       2.3
 1 C  dz2             1.2       0.1       0.0       0.2       0.1       0.5
 1 C  dxz             0.7       0.2       0.3       0.0       0.1       0.1
 1 C  dyz             0.1       0.3       0.0       0.1       0.0       0.0
 1 C  dx2y2           0.2       0.1       0.0       0.1       0.0       0.1
 1 C  dxy             0.0       0.0       0.1       0.2       0.0       0.1
 2 C  s              11.3       2.8       1.9       0.0       1.2       6.2
 2 C  pz              6.0       1.3       1.9       1.0       0.0      12.6
 2 C  px              0.1       4.0       2.7       5.1       0.0       0.4
 2 C  py             20.6       1.6       3.3       0.2       2.7      12.1
 2 C  dz2             2.9       0.6       0.2       0.0       0.0       0.8
 2 C  dxz             0.1       0.0       0.0       1.9       0.1       0.1
 2 C  dyz             0.0       0.5       0.6       0.0       0.0       0.3
 2 C  dx2y2           0.0       0.3       0.0       0.1       0.0       0.0
 2 C  dxy             0.0       0.7       0.6       0.0       0.0       0.1
 3 C  s               0.0       5.9       0.7       4.2       0.1       1.3
 3 C  pz              0.2       2.3       3.0       7.5       0.4       8.7
 3 C  px              0.3       1.3       1.4       3.1      27.8       0.0
 3 C  py              3.8      11.1       0.1       0.5       1.1       0.2
 3 C  dz2             0.2       0.3       0.9       1.4       0.1       0.1
 3 C  dxz             0.0       0.3       0.3       0.0       0.0       0.0
 3 C  dyz             1.1       0.1       0.0       0.0       0.0       0.0
 3 C  dx2y2           0.7       0.1       0.0       0.3       0.0       0.1
 3 C  dxy             0.3       0.1       0.0       0.3       0.0       0.0
 4 C  s               1.5       2.0       1.5       1.0       5.3       3.5
 4 C  pz              0.1      10.0       0.3       2.6       1.0       8.8
 4 C  px              1.4       8.3       2.6       6.4       3.2       1.2
 4 C  py              4.0       2.1       2.1       0.8       2.1       1.2
 4 C  dz2             0.0       0.9       0.0       0.8       0.1       0.0
 4 C  dxz             0.0       0.0       0.7       0.2       0.1       0.3
 4 C  dyz             0.3       0.3       0.4       0.4       0.2       0.0
 4 C  dx2y2           0.1       0.0       0.2       0.2       0.0       0.1
[...]
 4 C  pz              0.1       0.0       0.1       0.1       0.3       0.1
 4 C  px              0.0       0.0       0.3       0.2       1.0       0.6
 4 C  py              0.0       0.0       0.1       0.1       0.3       0.1
 4 C  dz2            12.2       4.2       4.1       0.6       0.4       0.2
 4 C  dxz             2.4       0.3       0.2       1.3       6.3       1.8
 4 C  dyz             0.4       0.3       0.0       0.8       2.1       0.3
 4 C  dx2y2           1.0       1.1      13.8       1.1       1.1       1.0
 4 C  dxy             3.5       0.8       1.1       0.8       5.8       1.8
 5 O  s               0.0       0.8       0.4       0.3       0.0       0.0
 5 O  pz              0.0       0.2       0.0       0.0       0.0       0.0
 5 O  px              0.2       0.0       0.0       0.0       0.1       0.0
 5 O  py              0.2       0.6       0.0       0.5       0.0       0.0
 5 O  dz2             0.2       0.0       0.4       0.9       0.0      38.6
 5 O  dxz             1.1       0.2       0.4       0.3       1.1      18.6
 5 O  dyz             1.3       2.8       0.6       0.5       0.1       3.4
 5 O  dx2y2           0.2       0.1       0.1       5.0       0.0      19.1
 5 O  dxy             3.0       1.0       0.0       0.0       0.3       0.1
 6 H  s               0.2       0.2       0.6       0.0       0.2       0.1
 7 H  s               0.2       0.7       0.7       0.1       0.1       0.1
 8 H  s               0.0       1.8       0.3       0.1       0.2       0.0
 9 H  s               1.1       1.4       0.0       0.6       0.7       0.0
10 H  s               1.7       1.7       0.1       0.5       0.3       0.0
11 H  s               0.1       0.8       0.1       1.4       0.0       0.1
12 H  s               2.0       0.0       0.0       0.7       0.5       0.1
13 H  s               2.4       0.2       0.0       0.6       0.2       0.0
14 H  s               1.0       0.4       0.3       0.1       0.1       0.0
15 H  s               0.8       0.4       0.4       0.1       0.1       0.0
16 H  s               0.0       0.0       0.4       0.0       0.2       0.1
17 H  s               0.2       0.0       0.0       0.0       0.0       0.0

                    102       103       104       105       106       107   
                   2.61745   2.64900   2.79486   2.87234   2.94685   3.29209
                   0.00000   0.00000   0.00000   0.00000   0.00000   0.00000
                  --------  --------  --------  --------  --------  --------
 0 C  s               1.0       0.6       0.0       0.0       0.1       0.0
 0 C  pz              0.3       0.0       0.0       0.0       0.0       0.0
 0 C  px              1.3       0.7       0.0       0.0       0.1       0.0
 0 C  py              0.3       0.0       0.0       0.0       0.0       0.0
 0 C  dz2             0.4       0.5       0.2       0.0       0.0       0.0
 0 C  dxz             4.7       0.5       0.0       0.2       0.1       0.0
 0 C  dyz             0.9       0.0       0.1       0.0       0.0       0.0
 0 C  dx2y2           1.4       3.0       0.1       0.1       0.1       0.0
 0 C  dxy             4.8       0.1       0.0       0.1       0.0       0.0
 1 C  s               0.2       0.4       0.0       0.0       0.2       0.2
 1 C  px              2.2       2.1       0.2       0.3       0.0       0.1
 1 C  py              0.0       0.1       0.0       0.0       0.1       0.1
 1 C  dz2             0.5       1.9       0.2       0.2       0.1       0.0
 1 C  dxz            11.3       2.7       1.5       0.7       0.0       0.0
 1 C  dyz             0.2       0.4       0.0       0.0       0.0       0.1
 1 C  dx2y2           4.8       1.0       2.9       0.1       0.7       0.0
 1 C  dxy             9.9       8.3       0.0       0.7       0.3       0.3
 2 C  s               0.8       0.0       0.0       0.0       0.0       1.7
 2 C  pz              0.1       0.0       0.7       0.4       0.0       0.3
 2 C  px              0.3       5.6       0.2       0.2       0.4       0.0
 2 C  py              0.0       0.0       0.0       0.0       0.1       3.7
 2 C  dz2             7.2       0.6       1.9       1.1       0.0       0.9
 2 C  dxz             0.5      14.1       0.2       0.0       2.0       0.0
 2 C  dyz             0.5       0.0       4.5       4.9       0.7       3.2
 2 C  dx2y2           7.3       0.2       1.9       0.5       0.0       8.9
 2 C  dxy             0.3       5.9       8.7      11.7       2.7       0.1
 3 C  s               0.4       0.1       0.0       0.1       0.1       0.0
 3 C  px              0.4       3.1       0.4       0.2       0.0       0.0
 3 C  py              0.0       0.1       0.0       0.1       0.0       0.1
 3 C  dz2             0.9       1.2       0.0       0.0       0.5       0.0
 3 C  dxz             4.5       6.8       0.6       1.2       0.2       0.0
 3 C  dyz             0.5       0.1       0.0       0.1       0.0       0.1
 3 C  dx2y2           5.9       0.0       0.0       3.3       0.1       0.0
 3 C  dxy             2.3      11.7       1.7       0.0       0.0       0.2
 4 C  s               0.3       1.0       0.1       0.0       0.0       0.0
 4 C  pz              0.2       0.1       0.0       0.0       0.0       0.0
 4 C  px              0.5       1.1       0.1       0.0       0.0       0.0
 4 C  py              0.1       0.1       0.0       0.0       0.0       0.0
 4 C  dz2             0.0       0.7       0.0       0.1       0.0       0.0
 4 C  dxz             2.5       1.3       0.2       0.0       0.0       0.0
 4 C  dyz             0.5       0.0       0.0       0.1       0.0       0.0
 4 C  dx2y2           0.1       3.7       0.1       0.0       0.0       0.0
 4 C  dxy             2.9       0.7       0.1       0.0       0.0       0.0
 5 O  s               0.0       0.0       0.2       0.4       2.6       4.1
 5 O  pz              0.0       0.0       0.8       0.2       0.3       0.1
 5 O  px              0.0       0.2       0.9       1.1       0.4       0.2
 5 O  py              0.0       0.0       0.2       0.0       0.0       4.6
 5 O  dz2             2.4       5.6       1.2      19.5      12.4       7.1
 5 O  dxz             3.9       4.6      33.7      11.6      12.4       0.0
 5 O  dyz             7.5       1.5      26.1      22.2       1.0      17.9
 5 O  dx2y2           1.4       4.6       7.8       0.5       0.0      43.1
 5 O  dxy             0.1       2.4       1.1      17.1      55.8       1.3
 6 H  s               0.2       0.0       0.0       0.0       0.0       0.0
11 H  s               0.3       0.0       0.1       0.0       0.0       0.0
13 H  s               0.1       0.0       0.0       0.1       0.0       0.0
16 H  s               0.1       0.0       0.0       0.0       0.0       0.0
17 H  s               0.1       0.2       0.8       0.5       6.3       0.8



                      *****************************
                      * MAYER POPULATION ANALYSIS *
                      *****************************

  NA   - Mulliken gross atomic population
  ZA   - Total nuclear charge
  QA   - Mulliken gross atomic charge
  VA   - Mayer's total valence
  BVA  - Mayer's bonded valence
  FA   - Mayer's free valence

  ATOM       NA         ZA         QA         VA         BVA        FA
  0 C      6.2589     6.0000    -0.2589     4.0185     4.0185     0.0000
  1 C      6.1532     6.0000    -0.1532     4.0783     4.0783    -0.0000
  2 C      6.0005     6.0000    -0.0005     4.1720     4.1720     0.0000
  3 C      6.1518     6.0000    -0.1518     4.0514     4.0514     0.0000
  4 C      6.2808     6.0000    -0.2808     4.0115     4.0115     0.0000
  5 O      8.4273     8.0000    -0.4273     1.9983     1.9983     0.0000
  6 H      0.9017     1.0000     0.0983     0.9493     0.9493     0.0000
  7 H      0.8880     1.0000     0.1120     0.9728     0.9728     0.0000
  8 H      0.9115     1.0000     0.0885     0.9584     0.9584    -0.0000
  9 H      0.9143     1.0000     0.0857     0.9627     0.9627    -0.0000
 10 H      0.9198     1.0000     0.0802     0.9529     0.9529    -0.0000
 11 H      0.9523     1.0000     0.0477     0.9549     0.9549     0.0000
 12 H      0.9129     1.0000     0.0871     0.9621     0.9621    -0.0000
 13 H      0.9218     1.0000     0.0782     0.9558     0.9558    -0.0000
 14 H      0.9001     1.0000     0.0999     0.9572     0.9572    -0.0000
 15 H      0.9117     1.0000     0.0883     0.9680     0.9680    -0.0000
 16 H      0.8899     1.0000     0.1101     0.9519     0.9519    -0.0000
 17 H      0.7033     1.0000     0.2967     0.8930     0.8930     0.0000

  Mayer bond orders larger than 0.100000
B(  0-C ,  1-C ) :   1.1611 B(  0-C ,  6-H ) :   0.9534 B(  0-C ,  7-H ) :   0.9479 
B(  0-C ,  8-H ) :   0.9536 B(  1-C ,  2-C ) :   1.0855 B(  1-C ,  9-H ) :   0.9115 
B(  1-C , 10-H ) :   0.9233 B(  2-C ,  3-C ) :   1.0717 B(  2-C ,  5-O ) :   1.0447 
B(  2-C , 11-H ) :   0.9015 B(  3-C ,  4-C ) :   1.1500 B(  3-C , 12-H ) :   0.9122 
B(  3-C , 13-H ) :   0.9110 B(  4-C , 14-H ) :   0.9530 B(  4-C , 15-H ) :   0.9440 
B(  4-C , 16-H ) :   0.9513 B(  5-O , 17-H ) :   0.8472 

-------
TIMINGS
-------

Total SCF time: 0 days 0 hours 0 min 5 sec 

Total time                  ....       5.745 sec
Sum of individual times     ....       5.375 sec  ( 93.6%)

SCF preparation             ....       0.177 sec  (  3.1%)
Fock matrix formation       ....       4.424 sec  ( 77.0%)
  Startup                   ....       0.056 sec  (  1.3% of F)
  Split-RI-J                ....       1.197 sec  ( 27.1% of F)
  XC integration            ....       2.693 sec  ( 60.9% of F)
    XC Preparation          ....       0.000 sec  (  0.0% of XC)
    Basis function eval.    ....       0.849 sec  ( 31.5% of XC)
    Density eval.           ....       0.277 sec  ( 10.3% of XC)
    XC-Functional eval.     ....       0.240 sec  (  8.9% of XC)
    XC-Potential eval.      ....       0.485 sec  ( 18.0% of XC)
Diagonalization             ....       0.000 sec  (  0.0%)
Density matrix formation    ....       0.174 sec  (  3.0%)
Total Energy calculation    ....       0.032 sec  (  0.6%)
Population analysis         ....       0.059 sec  (  1.0%)
Orbital Transformation      ....       0.047 sec  (  0.8%)
Orbital Orthonormalization  ....       0.000 sec  (  0.0%)
DIIS solution               ....       0.397 sec  (  6.9%)
  MO trafo                  ....       0.000 sec  (  0.0 % of DIIS)
  Orb grad                  ....       0.000 sec  (  0.0 % of DIIS)
  Energy W gradient         ....       0.000 sec  (  0.0 % of DIIS)
  DIIS error                ....       0.002 sec  (  0.4 % of DIIS)
  DIIS work                 ....       0.353 sec  ( 88.9 % of DIIS)
  Form Q                    ....       0.000 sec  (  0.0 % of DIIS)
  Form QpQm                 ....       0.000 sec  (  0.0 % of DIIS)
  Exp/Cayley                ....       0.000 sec  (  0.0 % of DIIS)
  Orb update                ....       0.000 sec  (  0.0 % of DIIS)
  Wake-sleep                ....       0.019 sec  (  4.7 % of DIIS)
SOSCF solution              ....       0.065 sec  (  1.1%)
  MO trafo                  ....       0.039 sec  ( 60.0 % of SOSCF)
  Orb grad                  ....       0.001 sec  (  2.0 % of SOSCF)
  Rot update                ....       0.011 sec  ( 16.9 % of SOSCF)
  Step                      ....       0.014 sec  ( 21.0 % of SOSCF)
Finished LeanSCF after   5.8 sec

Maximum memory used throughout the entire LEANSCF-calculation: 10.6 MB


-------------------------------------------------------------------------------
                          DFT DISPERSION CORRECTION                            
                                                                               
                                DFTD4 V3.4.0                                   
-------------------------------------------------------------------------------
The PBE functional is recognized
Active option DFTDOPT                   ...         5   

-------------------------   ----------------
Dispersion correction           -0.012456914
-------------------------   ----------------

------------------   -----------------
gCP correction             0.082617751
------------------   -----------------

-------------------------   --------------------
FINAL SINGLE POINT ENERGY      -272.306195457446
-------------------------   --------------------


------------------------------------------------------------------------------
                              ORCA PROPERTY CALCULATIONS
------------------------------------------------------------------------------

GBWName                                 ... sp.gbw
Number of atoms                         ...     18
Number of basis functions               ...    108
Max core memory                         ...   1024 MB

Electric properties:
Dipole moment                           ... YES
Quadrupole moment                       ...  NO
Static polarizability (Dipole/Dipole)   ...  NO
Static polarizability (Dipole/Quad.)    ...  NO
Static polarizability (Quad./Quad.)     ...  NO
Static polarizability (Velocity)        ...  NO

Atomic electric properties:
Dipole moment                           ...  NO
Quadrupole moment                       ...  NO
Static polarizability                   ...  NO

Choice of electric origin               ... Center of mass
Position of electric origin             ...     0.000002     0.000017     0.000005

General magnetic properties:
Magnetizability                         ...  NO

EPR properties:
g-Tensor (aka g-matrix)                 ...  NO
Zero-Field splitting spin-orbit         ...  NO
Zero-field splitting spin-spin          ...  NO
Hyperfine couplings                     ...  NO (   0 nuclei)
Quadrupole couplings                    ...  NO (   0 nuclei)
Contact density                         ...  NO (   0 nuclei)

NMR properties:
Chemical shifts                         ...  NO (   0 nuclei)
Spin-rotation constants                 ...  NO (   0 nuclei)
Spin-spin couplings                     ...  NO (   0 nuclei,    0 pairs)

Choice of magnetic origin               ... GIAO
Position of magnetic origin             ...     0.000000     0.000000     0.000000

Properties with geometric perturbations:
SCF Hessian                             ...  NO
IR spectrum                             ...  NO
VCD spectrum                            ...  NO
X-ray spectroscopy properties:
SCF XES/XAS/RIXS spectra                ...  NO


-------------
DIPOLE MOMENT
-------------

Method             : SCF
Type of density    : Electron Density
Multiplicity       :   1
Irrep              :   0
Energy             :  -272.3763562949441734 Eh
Relativity type    : 
Basis              : AO
                                X                 Y                 Z
Electronic contribution:     -0.238836702      -2.341755938      -0.906993425
Nuclear contribution   :      0.723781767       2.505299067       1.195393867
                        -----------------------------------------
Total Dipole Moment    :      0.484945065       0.163543129       0.288400442
                        -----------------------------------------
Magnitude (a.u.)       :      0.587446070
Magnitude (Debye)      :      1.493169247



--------------------
Rotational spectrum 
--------------------
 
Rotational constants in cm-1:             0.240375             0.063467             0.055377 
Rotational constants in MHz :          7206.248153          1902.678043          1660.164016 

Dipole components along the rotational axes: 
x,y,z [a.u.] :     0.487044     0.153941     0.290143 
x,y,z [Debye]:     1.237968     0.391288     0.737485 

 

Dipole moment calculation done in   0.0 sec 

Maximum memory used throughout the entire PROP-calculation: 6.6 MB

--------------------------------
SUGGESTED CITATIONS FOR THIS RUN
--------------------------------

Below you find a list of papers that are relevant to this ORCA run
We neither can nor want to force you to cite these papers, but we appreciate if you do
You receive ORCA, which is the product of decades of hard work by many enthusiastic individuals, for free
The only thing we kindly ask in return is that you cite our papers,
We deeply appreciate it, if you show your appreciation for ORCA by not just citing the generic ORCA reference.

Please note that relegating all ORCA citations to the supporting information does *not* help us.
SI sections are not indexed - citations you put there will not count into any citation statistics
But we need these citations in order to attract the funding resources that allow us to do what we are doing

Therefore, if you are a happy ORCA user, please consider citing a few of the papers listed below in the main body of your paper

In addition to the list printed below, the program has created the file sp.bibtex that contains the list in bibtex format
You can import this file easily into all common literature databanks and citation aid programs


List of essential papers. We consider these as the minimum necessary citations

  1. Neese,F.
     Software update: the ORCA program system, version 5.0
     WIRES Comput. Molec. Sci., 2022 12(1)e1606
     doi.org/10.1002/wcms.1606

List of papers to cite with high priority. The work reported in these papers was absolutely
necessary for this run to complete.
Our perspective: the developers of density functionals and basis sets usually get cited in chemistry papers
Good! But without the algorithms to do something with them, the functionals or basis sets would not do anything.
Hence, in our opinion, the algorithm design and method developments papers are equally worthy of getting cited

  1. Neese,F.
     An improvement of the resolution of the identity approximation for the formation of the Coulomb matrix
     J. Comp. Chem., 2003 24(14)1740-1747
     doi.org/10.1002/jcc.10318
  2. Neese,F.
     The SHARK Integral Generation and Digestion System
     J. Comp. Chem., 2022  1-16
     doi.org/10.1002/jcc.26942
  3. Caldeweyher,E.; Bannwarth,C.; Grimme,S.
     Extension of the D3 dispersion coefficient model
     J. Chem. Phys., 2017 147 034112-XXXX
     doi.org/10.1063/1.4993215
  4. Caldeweyher,E.; Ehlert,S.; Hansen,A.; Neugebauer,H.; Spicher,S.; Bannwarth,C.; Grimme,S.
     A generally applicable atomic-charge dependent London dispersion correction
     J. Chem. Phys., 2019 150 154122-XXXX
     doi.org/10.1063/1.5090222
  5. Caldeweyher,E.; Mewes,J.; Ehlert,S.; Grimme,S.
     Extension and evaluation of the D4 London-dispersion model for periodic systems
     Phys. Chem. Chem. Phys., 2020 22(16)8499-8512
     doi.org/10.1039/D0CP00502A

List of suggested additional citations. These are papers that are important in the 'surrounding' of 
of this run, or papers that preceded the highly important papers. If you like your results we are grateful for a citation.

  1. Neese,F.
     The ORCA program system
     WIRES Comput. Molec. Sci., 2012 2(1)73-78
     doi.org/10.1002/wcms.81
  2. Neese,F.
     Software update: the ORCA program system, version 4.0
     WIRES Comput. Molec. Sci., 2018 8(1)1-6
     doi.org/10.1002/wcms.1327
  3. Neese,F.; Wennmohs,F.; Becker,U.; Riplinger,C.
     The ORCA quantum chemistry program package
     J. Chem. Phys., 2020 152 Art. No. L224108
     doi.org/10.1063/5.0004608

List of optional additional citations

  1. Neese,F.
     Approximate second-order SCF convergence for spin unrestricted wavefunctions
     Chem. Phys. Lett., 2000 325(1-3)93-98
     doi.org/10.1016/s0009-2614(00)00662-x

Timings for individual modules:

Sum of individual times          ...        7.249 sec (=   0.121 min)
Startup calculation              ...        0.659 sec (=   0.011 min)   9.1 %
SCF iterations                   ...        6.498 sec (=   0.108 min)  89.6 %
Property calculations            ...        0.092 sec (=   0.002 min)   1.3 %
                             ****ORCA TERMINATED NORMALLY****
TOTAL RUN TIME: 0 days 0 hours 0 minutes 8 seconds 19 msec
