
                                 *****************
                                 * O   R   C   A *
                                 *****************

                                            #,                                       
                                            ###                                      
                                            ####                                     
                                            #####                                    
                                            ######                                   
                                           ########,                                 
                                     ,,################,,,,,                         
                               ,,#################################,,                 
                          ,,##########################################,,             
                       ,#########################################, ''#####,          
                    ,#############################################,,   '####,        
                  ,##################################################,,,,####,       
                ,###########''''           ''''###############################       
              ,#####''   ,,,,##########,,,,          '''####'''          '####       
            ,##' ,,,,###########################,,,                        '##       
           ' ,,###''''                  '''############,,,                           
         ,,##''                                '''############,,,,        ,,,,,,###''
      ,#''                                            '''#######################'''  
     '                                                          ''''####''''         
             ,#######,   #######,   ,#######,      ##                                
            ,#'     '#,  ##    ##  ,#'     '#,    #''#        ,####,   ,####,        
            ##       ##  ##   ,#'  ##            #'  '#       #'       #'  '#        
            ##       ##  #######   ##           ,######,      #####,   #    #        
            '#,     ,#'  ##    ##  '#,     ,#' ,#      #,     #,   #   #,  ,#        
             '#######'   ##     ##  '#######'  #'      '#     '####' # '####'        



                #########################################################
                #                        -***-                          #
                #          Department of theory and spectroscopy        #
                #                                                       #
                #                      Frank Neese                      #
                #                                                       #
                #     Directorship, Architecture, Infrastructure        #
                #                    SHARK, DRIVERS                     #
                #        Core code/Algorithms in most modules           #
                #                                                       #
                #        Max Planck Institute fuer Kohlenforschung      #
                #                Kaiser Wilhelm Platz 1                 #
                #                 D-45470 Muelheim/Ruhr                 #
                #                      Germany                          #
                #                                                       #
                #                  All rights reserved                  #
                #                        -***-                          #
                #########################################################


                         Program Version 6.0.0  -   RELEASE  -


 With contributions from (in alphabetic order):
   Daniel Aravena         : Magnetic Suceptibility
   Michael Atanasov       : Ab Initio Ligand Field Theory (pilot matlab implementation)
   Alexander A. Auer      : GIAO ZORA, VPT2 properties, NMR spectrum
   Ute Becker             : All parallelization in ORCA, NUMFREQ, NUMCALC
   Giovanni Bistoni       : ED, misc. LED, open-shell LED, HFLD
   Martin Brehm           : Molecular dynamics
   Dmytro Bykov           : pre 5.0 version of the SCF Hessian
   Marcos Casanova-Páez   : Triplet and SCS-CIS(D). UHF-(DLPNO)-IP/EA/STEOM-CCSD. UHF-CVS-IP/STEOM-CCSD
   Vijay G. Chilkuri      : MRCI spin determinant printing, contributions to CSF-ICE
   Pauline Colinet        : FMM embedding
   Dipayan Datta          : RHF DLPNO-CCSD density
   Achintya Kumar Dutta   : EOM-CC, STEOM-CC
   Nicolas Foglia         : Exact transition moments, OPA infrastructure, MCD improvements
   Dmitry Ganyushin       : Spin-Orbit,Spin-Spin,Magnetic field MRCI
   Miquel Garcia          : C-PCM and meta-GGA Hessian, CCSD/C-PCM, Gaussian charge scheme
   Tiago L. C. Gouveia    : GS-ROHF, GS-ROCIS
   Yang Guo               : DLPNO-NEVPT2, F12-NEVPT2, CIM, IAO-localization
   Andreas Hansen         : Spin unrestricted coupled pair/coupled cluster methods
   Ingolf Harden          : AUTO-CI MPn and infrastructure 
   Benjamin Helmich-Paris : MC-RPA, TRAH-(SCF,CASSCF), AVAS, COSX integrals, SCF dyn. polar.
   Lee Huntington         : MR-EOM, pCC
   Robert Izsak           : Overlap fitted RIJCOSX, COSX-SCS-MP3, EOM
   Riya Kayal             : Wick's Theorem for AUTO-CI, AUTO-CI UHF-CCSDT
   Emily Kempfer          : AUTO-CI, RHF CISDT and CCSDT
   Christian Kollmar      : KDIIS, OOCD, Brueckner-CCSD(T), CCSD density, CASPT2, CASPT2-K, improved NEVPT2
   Axel Koslowski         : Symmetry handling
   Simone Kossmann        : Meta GGA functionals, TD-DFT gradient, OOMP2, (MP2 Hessian; deprecated post 5.0)
   Lucas Lang             : DCDCAS
   Marvin Lechner         : AUTO-CI (C++ implementation), FIC-MRCC
   Spencer Leger          : CASSCF response
   Dagmar Lenk            : GEPOL surface, SMD, ORCA-2-JSON
   Dimitrios Liakos       : Extrapolation schemes; Compound Job, initial MDCI parallelization
   Dimitrios Manganas     : Further ROCIS development; embedding schemes. LFT, Crystal Embedding
   Dimitrios Pantazis     : SARC Basis sets
   Anastasios Papadopoulos: AUTO-CI, single reference methods and gradients
   Taras Petrenko         : pre 6.0 DFT Hessian and TD-DFT gradient, (ASA, deprecated), ECA, 1-Electron XAS/XES, NRVS
   Peter Pinski           : DLPNO-MP2, DLPNO-MP2 Gradient
   Christoph Reimann      : Effective Core Potentials
   Marius Retegan         : Local ZFS, SOC
   Christoph Riplinger    : Optimizer, TS searches, QM/MM, DLPNO-CCSD(T), (RO)-DLPNO pert. Triples
   Michael Roemelt        : Original ROCIS implementation
   Masaaki Saitow         : Open-shell DLPNO-CCSD energy and density
   Barbara Sandhoefer     : DKH picture change effects
   Kantharuban Sivalingam : CASSCF convergence/infrastructure, NEVPT2 and variants, FIC-MRCI
   Bernardo de Souza      : ESD, SOC TD-DFT
   Georgi Stoychev        : AutoAux, RI-MP2 NMR, DLPNO-MP2 response, X2C
   Van Anh Tran           : RI-MP2 g-tensors
   Willem Van den Heuvel  : Paramagnetic NMR
   Zikuan Wang            : NOTCH, Electric field optimization 
   Frank Wennmohs         : Technical directorship and infrastructure
   Hang Xu                : AUTO-CI-Response properties 


 We gratefully acknowledge several colleagues who have allowed us to
 interface, adapt or use parts of their codes:
   Stefan Grimme, W. Hujo, H. Kruse, P. Pracht,  : VdW corrections, initial TS optimization,
                  C. Bannwarth, S. Ehlert,         DFT functionals, gCP, sTDA/sTD-DF
                  L. Wittmann, M. Mueller
   Ed Valeev, F. Pavosevic, A. Kumar             : LibInt (2-el integral package), F12 methods
   Garnet Chan, S. Sharma, J. Yang, R. Olivares  : DMRG
   Ulf Ekstrom                                   : XCFun DFT Library
   Mihaly Kallay                                 : mrcc  (arbitrary order and MRCC methods)
   Frank Weinhold                                : gennbo (NPA and NBO analysis)
   Simon Mueller                                 : openCOSMO-RS
   Christopher J. Cramer and Donald G. Truhlar   : smd solvation model
   Lars Goerigk                                  : TD-DFT with DH, B97 family of functionals
   V. Asgeirsson, H. Jonsson                     : NEB implementation
   FAccTs GmbH                                   : IRC, NEB, NEB-TS, DLPNO-Multilevel, CI-OPT
                                                   MM, QMMM, 2- and 3-layer-ONIOM, Crystal-QMMM,
                                                   LR-CPCM, SF, NACMEs, symmetry and pop. for TD-DFT,
                                                   nearIR, NL-DFT gradient (VV10), updates on ESD,
                                                   ML-optimized integration grids, MBIS, APM,
                                                   GOAT, DOCKER, SOLVATOR, interface openCOSMO-RS
   S Lehtola, MJT Oliveira, MAL Marques          : LibXC Library
   Liviu Ungur et al                             : ANISO software


 Your calculation uses the libint2 library for the computation of 2-el integrals
 For citations please refer to: http://libint.valeyev.net

 Your ORCA version has been built with support for libXC version: 6.2.2
 For citations please refer to: https://libxc.gitlab.io

 This ORCA versions uses:
   CBLAS   interface :  Fast vector & matrix operations
   LAPACKE interface :  Fast linear algebra routines
   SCALAPACK package :  Parallel linear algebra routines
   Shared memory     :  Shared parallel matrices
   BLAS/LAPACK       :  OpenBLAS 0.3.27  USE64BITINT DYNAMIC_ARCH NO_AFFINITY SkylakeX SINGLE_THREADED
        Core in use  :  SkylakeX
   Copyright (c) 2011-2014, The OpenBLAS Project


Your calculation utilizes the geometrical counterpoise correction gCP
Please cite in your paper:
H.Kruse, S. Grimme J.Chem.Phys., 136, (2012), 154101 
   

Your calculation utilizes the atom-pairwise dispersion correction
based on EEQ partial charges (D4)


Your calculation utilizes the SMD solvation module
Please cite in your paper:
A.V. Marenich, C.J. Cramer, D.G. Truhlar J. Phys. Chem. B, 113, (2009), 6378 

================================================================================

----- Orbital basis set information -----
Your calculation utilizes the basis: def2-mTZVPP
   Stefan Grimme, Andreas Hansen, Sebastian Ehlert, and Jan-Michael Mewes 
   J. Chem. Phys. 154, 064103 (2021). DOI: 10.1063/5.0040021

----- AuxJ basis set information -----
Your calculation utilizes the auxiliary basis: def2/J
   F. Weigend, Phys. Chem. Chem. Phys. 8, 1057 (2006).

================================================================================
                                        WARNINGS
                       Please study these warnings very carefully!
================================================================================

Using LibXC functional ID 497 : Re-regularized SCAN exchange by Furness et al
[ 1]  J. W. Furness, A. D. Kaplan, J. Ning, J. P. Perdew, and J. Sun.,  J. Phys. Chem. Lett. 11, 8208-8215 (2020)
[ 2]  J. W. Furness, A. D. Kaplan, J. Ning, J. P. Perdew, and J. Sun.,  J. Phys. Chem. Lett. 11, 9248-9248 (2020)
Using LibXC functional ID 498 : Re-regularized SCAN correlation by Furness et al
[ 1]  J. W. Furness, A. D. Kaplan, J. Ning, J. P. Perdew, and J. Sun.,  J. Phys. Chem. Lett. 11, 8208-8215 (2020)
[ 2]  J. W. Furness, A. D. Kaplan, J. Ning, J. P. Perdew, and J. Sun.,  J. Phys. Chem. Lett. 11, 9248-9248 (2020)
Using LibXC functional ID 497 : Re-regularized SCAN exchange by Furness et al
[ 1]  J. W. Furness, A. D. Kaplan, J. Ning, J. P. Perdew, and J. Sun.,  J. Phys. Chem. Lett. 11, 8208-8215 (2020)
[ 2]  J. W. Furness, A. D. Kaplan, J. Ning, J. P. Perdew, and J. Sun.,  J. Phys. Chem. Lett. 11, 9248-9248 (2020)
Using LibXC functional ID 498 : Re-regularized SCAN correlation by Furness et al
[ 1]  J. W. Furness, A. D. Kaplan, J. Ning, J. P. Perdew, and J. Sun.,  J. Phys. Chem. Lett. 11, 8208-8215 (2020)
[ 2]  J. W. Furness, A. D. Kaplan, J. Ning, J. P. Perdew, and J. Sun.,  J. Phys. Chem. Lett. 11, 9248-9248 (2020)

================================================================================
                                       INPUT FILE
================================================================================
NAME = sp_solv.inp
|  1> ! r2scan-3c def2/J RI DEFGRID2 scfconv6 printgap
|  2> %output
|  3>     printlevel normal
|  4> end
|  5> %cpcm
|  6>     smd true
|  7>     smdsolvent "water"
|  8> end
|  9> * xyz 0 1
| 10> C 2.3999913818 0.6073872454 -0.6567414571
| 11> C 1.0761738033 -0.0922728236 -0.3361184886
| 12> H 0.7246977453 -0.6136834706 -1.231446703
| 13> C 0.0315750365 0.9404058176 0.1148539209
| 14> C -1.430996573 0.4685958858 0.1566304582
| 15> C -1.9171019226 -0.0181750563 -1.2076258911
| 16> C -1.6612621929 -0.6052903436 1.2175858655
| 17> O 1.27715249 -1.1259053738 0.6124109197
| 18> H 2.2801665236 1.2683296378 -1.5097143112
| 19> H 2.7353098833 1.1937245278 0.1965406406
| 20> H 3.159068221 -0.134625285 -0.8926777248
| 21> H 0.3099168669 1.2993562484 1.1095821373
| 22> H 0.0943675211 1.7871110019 -0.5714454712
| 23> H -2.0291677543 1.3474571993 0.4295751422
| 24> H -1.4537242625 -0.9667402515 -1.4667357009
| 25> H -1.6835427052 0.708612867 -1.9822257629
| 26> H -2.9943311987 -0.1658166934 -1.1878139399
| 27> H -1.0529378168 -1.4813072954 1.0089016558
| 28> H -1.4017553004 -0.2304979842 2.2051292737
| 29> H -2.7072044886 -0.9033784033 1.2291521555
| 30> H 1.6402200865 -0.7355938152 1.4196082235
| 31> *
| 32> 
| 33>                          ****END OF INPUT****
================================================================================

                       ****************************
                       * Single Point Calculation *
                       ****************************

---------------------------------
CARTESIAN COORDINATES (ANGSTROEM)
---------------------------------
  C      2.399991    0.607387   -0.656741
  C      1.076174   -0.092273   -0.336118
  H      0.724698   -0.613683   -1.231447
  C      0.031575    0.940406    0.114854
  C     -1.430997    0.468596    0.156630
  C     -1.917102   -0.018175   -1.207626
  C     -1.661262   -0.605290    1.217586
  O      1.277152   -1.125905    0.612411
  H      2.280167    1.268330   -1.509714
  H      2.735310    1.193725    0.196541
  H      3.159068   -0.134625   -0.892678
  H      0.309917    1.299356    1.109582
  H      0.094368    1.787111   -0.571445
  H     -2.029168    1.347457    0.429575
  H     -1.453724   -0.966740   -1.466736
  H     -1.683543    0.708613   -1.982226
  H     -2.994331   -0.165817   -1.187814
  H     -1.052938   -1.481307    1.008902
  H     -1.401755   -0.230498    2.205129
  H     -2.707204   -0.903378    1.229152
  H      1.640220   -0.735594    1.419608

----------------------------
CARTESIAN COORDINATES (A.U.)
----------------------------
  NO LB      ZA    FRAG     MASS         X           Y           Z
   0 C     6.0000    0    12.011    4.535326    1.147796   -1.241061
   1 C     6.0000    0    12.011    2.033674   -0.174370   -0.635172
   2 H     1.0000    0     1.008    1.369480   -1.159694   -2.327097
   3 C     6.0000    0    12.011    0.059668    1.777109    0.217042
   4 C     6.0000    0    12.011   -2.704192    0.885518    0.295989
   5 C     6.0000    0    12.011   -3.622798   -0.034346   -2.282082
   6 C     6.0000    0    12.011   -3.139331   -1.143833    2.300904
   7 O     8.0000    0    15.999    2.413468   -2.127653    1.157289
   8 H     1.0000    0     1.008    4.308890    2.396796   -2.852947
   9 H     1.0000    0     1.008    5.168987    2.255812    0.371408
  10 H     1.0000    0     1.008    5.969774   -0.254405   -1.686916
  11 H     1.0000    0     1.008    0.585658    2.455427    2.096806
  12 H     1.0000    0     1.008    0.178329    3.377150   -1.079875
  13 H     1.0000    0     1.008   -3.834571    2.546325    0.811779
  14 H     1.0000    0     1.008   -2.747141   -1.826874   -2.771729
  15 H     1.0000    0     1.008   -3.181435    1.339084   -3.745864
  16 H     1.0000    0     1.008   -5.658466   -0.313348   -2.244643
  17 H     1.0000    0     1.008   -1.989764   -2.799265    1.906548
  18 H     1.0000    0     1.008   -2.648934   -0.435578    4.167090
  19 H     1.0000    0     1.008   -5.115875   -1.707138    2.322761
  20 H     1.0000    0     1.008    3.099567   -1.390071    2.682671

--------------------------------
INTERNAL COORDINATES (ANGSTROEM)
--------------------------------
 C      0   0   0     0.000000000000     0.00000000     0.00000000
 C      1   0   0     1.531279295631     0.00000000     0.00000000
 H      2   1   0     1.094082763621   108.91314984     0.00000000
 C      2   1   3     1.536550641444   110.00495379   239.36564962
 C      4   2   1     1.537356693721   116.64623729   166.00995610
 C      5   4   2     1.527887347807   112.09782070   301.16804279
 C      5   4   2     1.527049529544   112.21968361    66.05606591
 O      2   1   3     1.417214422644   110.53522856   113.93293914
 H      1   2   3     1.085709690730   110.31845906    55.63196246
 H      1   2   3     1.088264785995   110.38833519   175.89345892
 H      1   2   3     1.087403405134   109.70240568   295.81070986
 H      4   2   1     1.093528148163   108.33342262   288.78121003
 H      4   2   1     1.091723142944   107.31561838    44.70945658
 H      5   4   2     1.097590438656   106.23002686   183.80457044
 H      6   5   4     1.087029290755   110.80713981    71.28893313
 H      6   5   4     1.087554851435   110.77682585   310.46447031
 H      6   5   4     1.087480335318   110.00746046   190.57488613
 H      7   5   4     1.086744379225   110.42954688   299.13509883
 H      7   5   4     1.087683374424   110.64089433    59.37138085
 H      7   5   4     1.087651394673   110.18984044   179.12525587
 H      8   2   1     0.967330698193   108.50805552    59.89119449

---------------------------
INTERNAL COORDINATES (A.U.)
---------------------------
 C      0   0   0     0.000000000000     0.00000000     0.00000000
 C      1   0   0     2.893698503287     0.00000000     0.00000000
 H      2   1   0     2.067516791088   108.91314984     0.00000000
 C      2   1   3     2.903659903230   110.00495379   239.36564962
 C      4   2   1     2.905183121284   116.64623729   166.00995610
 C      5   4   2     2.887288650838   112.09782070   301.16804279
 C      5   4   2     2.885705403772   112.21968361    66.05606591
 O      2   1   3     2.678147131841   110.53522856   113.93293914
 H      1   2   3     2.051693976425   110.31845906    55.63196246
 H      1   2   3     2.056522406720   110.38833519   175.89345892
 H      1   2   3     2.054894632796   109.70240568   295.81070986
 H      4   2   1     2.066468719762   108.33342262   288.78121003
 H      4   2   1     2.063057754228   107.31561838    44.70945658
 H      5   4   2     2.074145336270   106.23002686   183.80457044
 H      6   5   4     2.054187659077   110.80713981    71.28893313
 H      6   5   4     2.055180824830   110.77682585   310.46447031
 H      6   5   4     2.055040009775   110.00746046   190.57488613
 H      7   5   4     2.053649254313   110.42954688   299.13509883
 H      7   5   4     2.055423698081   110.64089433    59.37138085
 H      7   5   4     2.055363265110   110.18984044   179.12525587
 H      8   2   1     1.827990100520   108.50805552    59.89119449

---------------------
BASIS SET INFORMATION
---------------------
There are 3 groups of distinct atoms

 Group   1 Type C   : 11s6p1d contracted to 5s3p1d pattern {62111/411/1}
 Group   2 Type H   : 4s1p contracted to 2s1p pattern {31/1}
 Group   3 Type O   : 11s6p2d contracted to 5s3p2d pattern {62111/411/11}

Atom   0C    basis set group =>   1
Atom   1C    basis set group =>   1
Atom   2H    basis set group =>   2
Atom   3C    basis set group =>   1
Atom   4C    basis set group =>   1
Atom   5C    basis set group =>   1
Atom   6C    basis set group =>   1
Atom   7O    basis set group =>   3
Atom   8H    basis set group =>   2
Atom   9H    basis set group =>   2
Atom  10H    basis set group =>   2
Atom  11H    basis set group =>   2
Atom  12H    basis set group =>   2
Atom  13H    basis set group =>   2
Atom  14H    basis set group =>   2
Atom  15H    basis set group =>   2
Atom  16H    basis set group =>   2
Atom  17H    basis set group =>   2
Atom  18H    basis set group =>   2
Atom  19H    basis set group =>   2
Atom  20H    basis set group =>   2
---------------------------------
AUXILIARY/J BASIS SET INFORMATION
---------------------------------
There are 3 groups of distinct atoms

 Group   1 Type C   : 12s5p4d2f1g contracted to 6s4p3d1f1g pattern {711111/2111/211/2/1}
 Group   2 Type H   : 5s2p1d contracted to 3s1p1d pattern {311/2/1}
 Group   3 Type O   : 12s5p4d2f1g contracted to 6s4p3d1f1g pattern {711111/2111/211/2/1}

Atom   0C    basis set group =>   1
Atom   1C    basis set group =>   1
Atom   2H    basis set group =>   2
Atom   3C    basis set group =>   1
Atom   4C    basis set group =>   1
Atom   5C    basis set group =>   1
Atom   6C    basis set group =>   1
Atom   7O    basis set group =>   3
Atom   8H    basis set group =>   2
Atom   9H    basis set group =>   2
Atom  10H    basis set group =>   2
Atom  11H    basis set group =>   2
Atom  12H    basis set group =>   2
Atom  13H    basis set group =>   2
Atom  14H    basis set group =>   2
Atom  15H    basis set group =>   2
Atom  16H    basis set group =>   2
Atom  17H    basis set group =>   2
Atom  18H    basis set group =>   2
Atom  19H    basis set group =>   2
Atom  20H    basis set group =>   2

Checking for AutoStart:
The File: sp_solv.gbw exists
Trying to determine its content:
     ... Fine, the file contains calculation information
     ... Fine, the calculation information was read
     ... Fine, the file contains a basis set
     ... Fine, the basis set was read
     ... Fine, the file contains a geometry
     ... Fine, the geometry was read
     ... Fine, the file contains a set of orbitals
     ... Fine, the orbitals can be read
     => possible old guess file was deleted
     => GBW file was renamed to GES file
     => GES file is set as startup file
     => Guess is set to MORead
     ... now leaving AutoStart

------------------------------------------------------------------------------
                             ORCA STARTUP CALCULATIONS
                           -- RI-GTO INTEGRALS CHOSEN --
------------------------------------------------------------------------------
------------------------------------------------------------------------------
                   ___                                                        
                  /   \      - P O W E R E D   B Y -                         
                 /     \                                                     
                 |  |  |   _    _      __       _____    __    __             
                 |  |  |  | |  | |    /  \     |  _  \  |  |  /  |          
                  \  \/   | |  | |   /    \    | | | |  |  | /  /          
                 / \  \   | |__| |  /  /\  \   | |_| |  |  |/  /          
                |  |  |   |  __  | /  /__\  \  |    /   |      \           
                |  |  |   | |  | | |   __   |  |    \   |  |\   \          
                \     /   | |  | | |  |  |  |  | |\  \  |  | \   \       
                 \___/    |_|  |_| |__|  |__|  |_| \__\ |__|  \__/        
                                                                              
                      - O R C A' S   B I G   F R I E N D -                    
                                      &                                       
                       - I N T E G R A L  F E E D E R -                       
                                                                              
 v1 FN, 2020, v2 2021, v3 2022-2024                                           
------------------------------------------------------------------------------


----------------------
SHARK INTEGRAL PACKAGE
----------------------

Number of atoms                             ...     21
Number of basis functions                   ...    208
Number of shells                            ...    106
Maximum angular momentum                    ...      2
Integral batch strategy                     ... SHARK/LIBINT Hybrid
RI-J (if used) integral strategy            ... SPLIT-RIJ (Revised 2003 algorithm where possible)
Printlevel                                  ...      1
Contraction scheme used                     ... SEGMENTED contraction
Prescreening option                         ... SCHWARTZ
   Thresh                                   ... 1.000e-10
   Tcut                                     ... 1.000e-11
   Tpresel                                  ... 1.000e-11 
Coulomb Range Separation                    ... NOT USED
Exchange Range Separation                   ... NOT USED
Multipole approximations                    ... NOT USED
Finite Nucleus Model                        ... NOT USED
CABS basis                                  ... NOT available
Auxiliary Coulomb fitting basis             ... AVAILABLE
   # of basis functions in Aux-J            ...    497
   # of shells in Aux-J                     ...    175
   Maximum angular momentum in Aux-J        ...      4
Auxiliary J/K fitting basis                 ... NOT available
Auxiliary Correlation fitting basis         ... NOT available
Auxiliary 'external' fitting basis          ... NOT available

Checking pre-screening integrals            ... done (  0.0 sec) Dimension = 106
Check shell pair data                       ... done (  0.0 sec)
Shell pair information
Shell pair cut-off parameter TPreSel        ...   1.0e-11
Total number of shell pairs                 ...      5671
Shell pairs after pre-screening             ...      5209
Total number of primitive shell pairs       ...     19699
Primitive shell pairs kept                  ...     13092
          la=0 lb=0:   1835 shell pairs
          la=1 lb=0:   2022 shell pairs
          la=1 lb=1:    581 shell pairs
          la=2 lb=0:    473 shell pairs
          la=2 lb=1:    262 shell pairs
          la=2 lb=2:     36 shell pairs

Calculating one electron integrals          ... done (  0.0 sec)
Calculating RI/J V-Matrix + Cholesky decomp.... done (  0.1 sec)
Calculating Nuclear repulsion               ... done (  0.0 sec) ENN=    338.001257520243 Eh

Diagonalization of the overlap matrix:
Smallest eigenvalue                        ... 1.664e-04
Time for diagonalization                   ...    0.004 sec
Threshold for overlap eigenvalues          ... 1.000e-07
Number of eigenvalues below threshold      ... 0
Time for construction of square roots      ...    0.015 sec
Total time needed                          ...    0.030 sec

-------------------
DFT GRID GENERATION
-------------------

General Integration Accuracy     IntAcc      ... 4.388
Radial Grid Type                 RadialGrid  ... OptM3 with GC (2021)
Angular Grid (max. ang.)         AngularGrid ... 4 (Lebedev-302)
Angular grid pruning method      GridPruning ... 4 (adaptive)
Weight generation scheme         WeightScheme... mBecke (2022)
Basis function cutoff            BFCut       ... 1.0000e-10
Integration weight cutoff        WCut        ... 1.0000e-14
Partially contracted basis set               ... off
Rotationally invariant grid construction     ... off
Angular grids for H and He will be reduced by one unit
Diffuse basis detected: some atoms will have their outermost
                        angular grid increased by 1.

Total number of grid points                  ...    87023
Total number of batches                      ...     1372
Average number of points per batch           ...       63
Average number of grid points per atom       ...     4144
Initializing property integral containers    ... done (  0.0 sec)

SHARK setup successfully completed in   1.4 seconds

Maximum memory used throughout the entire STARTUP-calculation: 38.0 MB
-------------------------------------------------------------------------------
                                 ORCA GUESS
                   Start orbitals & Density for SCF / CASSCF
-------------------------------------------------------------------------------

------------
SCF SETTINGS
------------
Hamiltonian:
 Density Functional     Method          .... DFT(GTOs)
  Functional kind                       .... Exchange
  Functional name                       .... Re-regularized SCAN exchange by Furness et al
  Functional family                     .... MGGA
  Functional refs                              
    [ 0] J. W. Furness, A. D. Kaplan, J. Ning, J. P. Perdew, and J. Sun.,  J. Phys. Chem. Lett. 11, 8208-8215 (2020), doi: 10.1021/acs.jpclett.0c02405
    [ 1] J. W. Furness, A. D. Kaplan, J. Ning, J. P. Perdew, and J. Sun.,  J. Phys. Chem. Lett. 11, 9248-9248 (2020), doi: 10.1021/acs.jpclett.0c03077
  Functional external parameters        .... 6
    Parameter  0 _c1        =  6.670000e-01 : c1 parameter        
    Parameter  1 _c2        =  8.000000e-01 : c2 parameter        
    Parameter  2 _d         =  1.240000e+00 : d parameter         
    Parameter  3 _k1        =  6.500000e-02 : k1 parameter        
    Parameter  4 _eta       =  1.000000e-03 : eta parameter       
    Parameter  5 _dp2       =  3.610000e-01 : dp2 parameter       
  Functional kind                       .... Correlation
  Functional name                       .... Re-regularized SCAN correlation by Furness et al
  Functional family                     .... MGGA
  Functional refs                              
    [ 0] J. W. Furness, A. D. Kaplan, J. Ning, J. P. Perdew, and J. Sun.,  J. Phys. Chem. Lett. 11, 8208-8215 (2020), doi: 10.1021/acs.jpclett.0c02405
    [ 1] J. W. Furness, A. D. Kaplan, J. Ning, J. P. Perdew, and J. Sun.,  J. Phys. Chem. Lett. 11, 9248-9248 (2020), doi: 10.1021/acs.jpclett.0c03077
  Functional external parameters        .... 1
    Parameter  0 _eta       =  1.000000e-03 : Regularization parameter
 Gradients option       PostSCFGGA      .... off
 RI-approximation to the Coulomb term is turned on
   Number of AuxJ basis functions       .... 497


General Settings:
 Integral files         IntName         .... sp_solv
 Hartree-Fock type      HFTyp           .... RHF
 Total Charge           Charge          ....    0
 Multiplicity           Mult            ....    1
 Number of Electrons    NEL             ....   58
 Basis Dimension        Dim             ....  208
 Nuclear Repulsion      ENuc            ....    338.0012575202 Eh

Convergence Acceleration:
 AO-DIIS                CNVDIIS         .... on
   Start iteration      DIISMaxIt       ....    12
   Startup error        DIISStart       ....  0.200000
   # of expansion vecs  DIISMaxEq       ....     5
   Bias factor          DIISBfac        ....   1.050
   Max. coefficient     DIISMaxC        ....  10.000
 MO-DIIS                CNVKDIIS        .... off
 Trust-Rad. Augm. Hess. CNVTRAH         .... auto
   Auto Start mean grad. ratio tolernc. ....  1.125000
   Auto Start start iteration           ....     1
   Auto Start num. interpolation iter.  ....    10
   Max. Number of Micro iterations      ....    24
   Max. Number of Macro iterations      .... Maxiter - #DIIS iter
   Number of Davidson start vectors     ....     2
   Converg. threshold    (grad. norm)   ....   3.330e-04
   Grad. Scal. Fac. for Micro threshold ....   0.100
   Minimum threshold for Micro iter.    ....   1.000e-02
   NR start threshold (gradient norm)   ....   1.000e-04
   Initial trust radius                 ....   0.400
   Minimum AH scaling param. (alpha)    ....   1.000
   Maximum AH scaling param. (alpha)    .... 1000.000
   Quad. conv. algorithm                .... NR
   White noise on init. David. guess    .... on
   Maximum white noise                  ....   0.010
   Pseudo random numbers                .... off
   Inactive MOs                         .... canonical
   Orbital update algorithm             .... Taylor
   Preconditioner                       .... Diag
   Full preconditioner red. dimension   ....   250
   COSX micro iterations for RIJONX calc.... off
 SOSCF                  CNVSOSCF        .... on
   Start iteration      SOSCFMaxIt      ....   150
   Startup grad/error   SOSCFStart      ....  0.003300
   Hessian update       SOSCFHessUp     .... L-BFGS
 Level Shifting         CNVShift        .... on
   Level shift para.    LevelShift      ....    0.2500
   Turn off err/grad.   ShiftErr        ....    0.0010
 Zerner damping         CNVZerner       .... off
 Static damping         CNVDamp         .... on
   Fraction old density DampFac         ....    0.7000
   Max. Damping (<1)    DampMax         ....    0.9800
   Min. Damping (>=0)   DampMin         ....    0.0000
   Turn off err/grad.   DampErr         ....    0.1000

SCF Procedure:
 Maximum # iterations   MaxIter         ....   125
 SCF integral mode      SCFMode         .... Direct
   Integral package                     .... SHARK and LIBINT hybrid scheme
 Reset frequency        DirectResetFreq ....    20
 Integral Threshold     Thresh          ....  1.000e-10 Eh
 Primitive CutOff       TCut            ....  1.000e-11 Eh

Convergence Tolerance:
 Convergence Check Mode ConvCheckMode   .... Total+1el-Energy
 Convergence forced     ConvForced      .... 0
 Energy Change          TolE            ....  1.000e-06 Eh
 1-El. energy change                    ....  1.000e-03 Eh
 Orbital Gradient       TolG            ....  3.330e-04
 Orbital Rotation angle TolX            ....  3.330e-04
 DIIS Error             TolErr          ....  1.000e-06

---------------------
INITIAL GUESS: MOREAD
---------------------
Guess MOs are being read from file: sp_solv.ges
Input Geometry matches current geometry (good)
Atom 0: N(Shells)= 9 and 6 - projection required
Input basis set needs projection
NBasis(read)= 126
NBasis(calc)= 208
Basis set overlap was calculated
Using GuessMode=FMatrix for the initial guess
C*T matrix was formed
Effective Fockian was calculated
Effective Fockian was diagonalized
Initial density was built
                      ------------------
                      INITIAL GUESS DONE (   0.1 sec)
                      ------------------
             **** ENERGY FILE WAS UPDATED (sp_solv.en.tmp) ****
Finished Guess after   0.3 sec
Maximum memory used throughout the entire GUESS-calculation: 14.4 MB

-------------------------------------------------------------------------------------------
                                      ORCA LEAN-SCF
                              memory conserving SCF solver
-------------------------------------------------------------------------------------------

--------------------
CPCM SOLVATION MODEL
--------------------
CPCM parameters:
  Epsilon                                         ...      78.3550
  Refrac                                          ...       1.3328
  Rsolv                                           ...       1.3000
  Surface type                                    ... GAUSSIAN VDW
  Discretization scheme                           ... Constant charge density
    Threshold for H atoms                         ...       5.0000 (charges/Ang^2)
    Threshold for non-H atoms                     ...       5.0000 (charges/Ang^2)
  Epsilon function type                           ...         CPCM
Solvent:                                          ... WATER
SMD-CDS solvent descriptors:
  Soln                                            ...       1.3328
  Soln25                                          ...       1.3323
  Sola                                            ...       0.0000
  Solb                                            ...       0.0000
  Solg                                            ...       0.0000
  Solc                                            ...       0.0000
  Solh                                            ...       0.0000
Radii:
  Scheme                                          ... Element-dependent radii
  Radius for C  used is    3.4960 Bohr (=   1.8500 Ang.)
  Radius for H  used is    2.2677 Bohr (=   1.2000 Ang.)
  Radius for O  used is    2.8724 Bohr (=   1.5200 Ang.)
Calculating surface                               ...        done! (  0.0s)
Cavity surface points                             ...         1505
Cavity Volume                                     ...     851.3096
Cavity Surface-area                               ...     556.8414
Calculating surface distance matrix               ...        done! (  0.0s)
Performing Cholesky decomposition & store         ...        done! (  0.1s)
Overall time for CPCM initialization              ...                 0.1s

----------------------------------------D-I-I-S--------------------------------------------
Iteration    Energy (Eh)           Delta-E    RMSDP     MaxDP     DIISErr   Damp  Time(sec)
-------------------------------------------------------------------------------------------
               ***  Starting incremental Fock matrix formation  ***
    1    -312.0391320130774488     0.00e+00  3.69e-03  1.35e-01  6.26e-01  0.700   3.6
    2    -312.0918413508543949    -5.27e-02  3.01e-03  9.02e-02  4.41e-01  0.700   3.3
    3    -312.1292369744710982    -3.74e-02  2.22e-03  6.56e-02  3.09e-01  0.700   3.6
    4    -312.1555379657372100    -2.63e-02  1.59e-03  4.67e-02  2.17e-01  0.700   3.5
                               ***Turning on AO-DIIS***
    5    -312.1740122011481731    -1.85e-02  1.16e-03  3.34e-02  1.52e-01  0.700   3.5
    6    -312.1869757140368051    -1.30e-02  8.26e-04  2.36e-02  1.06e-01  0.700   3.3
    7    -312.1960729221513589    -9.10e-03  5.84e-04  1.66e-02  7.41e-02  0.700   3.1
    8    -312.2024512238405691    -6.38e-03  1.37e-03  3.88e-02  5.20e-02  0.000   3.0
                              *** Initializing SOSCF ***
---------------------------------------S-O-S-C-F--------------------------------------
Iteration    Energy (Eh)           Delta-E    RMSDP     MaxDP     MaxGrad    Time(sec)
--------------------------------------------------------------------------------------
    9    -312.2173702882567454    -1.49e-02  1.37e-05  3.42e-04  1.52e-04     3.1
               *** Restarting incremental Fock matrix formation ***
   10    -312.2173704128185250    -1.25e-07  7.35e-06  1.43e-04  2.53e-05     3.5
                  *** Gradient check signals convergence ***

               *****************************************************
               *                     SUCCESS                       *
               *           SCF CONVERGED AFTER  10 CYCLES          *
               *****************************************************


SMD CDS free energy correction energy :                 3.76171     Kcal/mol
Total Energy after SMD CDS correction =              -312.211375755 Eh
             **** ENERGY FILE WAS UPDATED (sp_solv.en.tmp) ****

----------------
TOTAL SCF ENERGY
----------------

Total Energy       :       -312.21137575487137 Eh           -8495.70345 eV

Components:
Nuclear Repulsion  :        338.00125752024309 Eh            9197.48181 eV
Electronic Energy  :       -650.20573254249734 Eh          -17692.99748 eV
One Electron Energy:      -1091.79471019604489 Eh          -29709.24445 eV
Two Electron Energy:        441.58897765354760 Eh           12016.24698 eV
CPCM Dielectric    :         -0.01289539056439 Eh              -0.35090 eV
SMD CDS (Gcds)     :          0.00599465794717 Eh               0.16312 eV

Virial components:
Potential Energy   :       -623.01878541264159 Eh          -16953.20304 eV
Kinetic Energy     :        310.80740965777028 Eh            8457.49959 eV
Virial Ratio       :          2.00451715774295

DFT components:
N(Alpha)           :       29.000026656595 electrons
N(Beta)            :       29.000026656595 electrons
N(Total)           :       58.000053313190 electrons
E(X)               :      -44.508524352070 Eh       
E(C)               :       -1.814001119723 Eh       
E(XC)              :      -46.322525471794 Eh       

CPCM Solvation Model Properties:
Surface-charge          :         -0.04963961516356
Corrected charge        :          0.00000000000000
Outlying charge corr.   :          0.00019362873525 Eh               0.00527 eV
Free-energy (cav+disp)  :          0.00599465794717 Eh               0.16312 eV

---------------
SCF CONVERGENCE
---------------

  Last Energy change         ...    1.2456e-07  Tolerance :   1.0000e-06
  Last MAX-Density change    ...    1.4323e-04  Tolerance :   1.0000e-05
  Last RMS-Density change    ...    7.3535e-06  Tolerance :   1.0000e-06
  Last DIIS Error            ...    1.5178e-04  Tolerance :   1.0000e-06
  Last Orbital Gradient      ...    2.5311e-05  Tolerance :   3.3300e-04
  Last Orbital Rotation      ...    4.7772e-05  Tolerance :   3.3300e-04


----------------
ORBITAL ENERGIES
----------------

  NO   OCC          E(Eh)            E(eV) 
   0   2.0000     -18.944792      -515.5140 
   1   2.0000     -10.072767      -274.0939 
   2   2.0000     -10.024263      -272.7741 
   3   2.0000     -10.012978      -272.4670 
   4   2.0000     -10.008358      -272.3413 
   5   2.0000     -10.005236      -272.2563 
   6   2.0000     -10.001877      -272.1649 
   7   2.0000      -0.983273       -26.7562 
   8   2.0000      -0.766834       -20.8666 
   9   2.0000      -0.712851       -19.3977 
  10   2.0000      -0.640201       -17.4208 
  11   2.0000      -0.637904       -17.3582 
  12   2.0000      -0.572309       -15.5733 
  13   2.0000      -0.516509       -14.0549 
  14   2.0000      -0.438288       -11.9264 
  15   2.0000      -0.433036       -11.7835 
  16   2.0000      -0.421794       -11.4776 
  17   2.0000      -0.389147       -10.5892 
  18   2.0000      -0.379577       -10.3288 
  19   2.0000      -0.375934       -10.2297 
  20   2.0000      -0.346716        -9.4346 
  21   2.0000      -0.340006        -9.2520 
  22   2.0000      -0.332319        -9.0429 
  23   2.0000      -0.317409        -8.6371 
  24   2.0000      -0.301558        -8.2058 
  25   2.0000      -0.288086        -7.8392 
  26   2.0000      -0.283956        -7.7268 
  27   2.0000      -0.271244        -7.3809 
  28   2.0000      -0.227508        -6.1908 
  29   0.0000       0.073768         2.0073 
  30   0.0000       0.106966         2.9107 
  31   0.0000       0.119447         3.2503 
  32   0.0000       0.123386         3.3575 
  33   0.0000       0.140324         3.8184 
  34   0.0000       0.141936         3.8623 
  35   0.0000       0.150916         4.1066 
  36   0.0000       0.150961         4.1078 
  37   0.0000       0.155051         4.2192 
  38   0.0000       0.168466         4.5842 
  39   0.0000       0.175470         4.7748 
*Only the first 10 virtual orbitals were printed.

                    ********************************
                    * MULLIKEN POPULATION ANALYSIS *
                    ********************************

-----------------------
MULLIKEN ATOMIC CHARGES
-----------------------
   0 C :   -0.536619
   1 C :   -0.008640
   2 H :    0.154790
   3 C :   -0.311708
   4 C :    0.016637
   5 C :   -0.557236
   6 C :   -0.557225
   7 O :   -0.477508
   8 H :    0.164434
   9 H :    0.161418
  10 H :    0.161856
  11 H :    0.162588
  12 H :    0.161180
  13 H :    0.157388
  14 H :    0.163031
  15 H :    0.160948
  16 H :    0.158308
  17 H :    0.174903
  18 H :    0.155950
  19 H :    0.150338
  20 H :    0.345165
Sum of atomic charges:   -0.0000000

--------------------------------
MULLIKEN REDUCED ORBITAL CHARGES
--------------------------------
  0 C s       :     3.366128  s :     3.366128
      pz      :     1.084707  p :     3.144786
      px      :     0.983104
      py      :     1.076976
      dz2     :     0.003779  d :     0.025704
      dxz     :     0.003714
      dyz     :     0.007024
      dx2y2   :     0.003369
      dxy     :     0.007818

  1 C s       :     3.215761  s :     3.215761
      pz      :     0.910905  p :     2.725334
      px      :     0.960107
      py      :     0.854323
      dz2     :     0.011330  d :     0.067545
      dxz     :     0.010243
      dyz     :     0.017988
      dx2y2   :     0.010895
      dxy     :     0.017089

  2 H s       :     0.827787  s :     0.827787
      pz      :     0.008637  p :     0.017423
      px      :     0.004418
      py      :     0.004368

  3 C s       :     3.249001  s :     3.249001
      pz      :     1.114576  p :     3.027335
      px      :     0.922367
      py      :     0.990392
      dz2     :     0.005985  d :     0.035371
      dxz     :     0.005062
      dyz     :     0.007703
      dx2y2   :     0.008094
      dxy     :     0.008527

  4 C s       :     3.059496  s :     3.059496
      pz      :     0.897072  p :     2.877241
      px      :     0.966990
      py      :     1.013180
      dz2     :     0.010867  d :     0.046625
      dxz     :     0.007773
      dyz     :     0.010184
      dx2y2   :     0.007925
      dxy     :     0.009875

  5 C s       :     3.352582  s :     3.352582
      pz      :     0.987210  p :     3.177590
      px      :     1.105858
      py      :     1.084522
      dz2     :     0.006770  d :     0.027065
      dxz     :     0.003455
      dyz     :     0.007623
      dx2y2   :     0.006051
      dxy     :     0.003166

  6 C s       :     3.352583  s :     3.352583
      pz      :     1.038023  p :     3.177566
      px      :     1.110395
      py      :     1.029148
      dz2     :     0.007993  d :     0.027076
      dxz     :     0.002103
      dyz     :     0.005875
      dx2y2   :     0.005196
      dxy     :     0.005909

  7 O s       :     3.743761  s :     3.743761
      pz      :     1.313103  p :     4.716180
      px      :     1.840328
      py      :     1.562749
      dz2     :     0.003542  d :     0.017567
      dxz     :     0.003773
      dyz     :     0.004561
      dx2y2   :     0.001987
      dxy     :     0.003704

  8 H s       :     0.817148  s :     0.817148
      pz      :     0.008266  p :     0.018418
      px      :     0.003612
      py      :     0.006539

  9 H s       :     0.820316  s :     0.820316
      pz      :     0.008065  p :     0.018267
      px      :     0.004317
      py      :     0.005885

 10 H s       :     0.819888  s :     0.819888
      pz      :     0.003961  p :     0.018256
      px      :     0.007361
      py      :     0.006933

 11 H s       :     0.819571  s :     0.819571
      pz      :     0.009681  p :     0.017841
      px      :     0.003839
      py      :     0.004321

 12 H s       :     0.820836  s :     0.820836
      pz      :     0.006386  p :     0.017983
      px      :     0.003450
      py      :     0.008147

 13 H s       :     0.825268  s :     0.825268
      pz      :     0.003748  p :     0.017344
      px      :     0.005533
      py      :     0.008063

 14 H s       :     0.818565  s :     0.818565
      pz      :     0.003994  p :     0.018404
      px      :     0.005140
      py      :     0.009270

 15 H s       :     0.820794  s :     0.820794
      pz      :     0.007425  p :     0.018258
      px      :     0.003998
      py      :     0.006835

 16 H s       :     0.823393  s :     0.823393
      pz      :     0.003583  p :     0.018300
      px      :     0.010835
      py      :     0.003882

 17 H s       :     0.806370  s :     0.806370
      pz      :     0.003827  p :     0.018727
      px      :     0.006572
      py      :     0.008328

 18 H s       :     0.825742  s :     0.825742
      pz      :     0.009732  p :     0.018308
      px      :     0.004132
      py      :     0.004445

 19 H s       :     0.831364  s :     0.831364
      pz      :     0.003612  p :     0.018298
      px      :     0.010350
      py      :     0.004335

 20 H s       :     0.611885  s :     0.611885
      pz      :     0.018745  p :     0.042949
      px      :     0.013702
      py      :     0.010503


------------------------
MULLIKEN OVERLAP CHARGES
------------------------
B(  0-C ,  1-C ) :   0.5433 B(  0-C ,  3-C ) :  -0.1966 B(  0-C ,  7-O ) :  -0.1029 
B(  0-C ,  8-H ) :   0.8260 B(  0-C ,  9-H ) :   0.8431 B(  0-C , 10-H ) :   0.8237 
B(  1-C ,  2-H ) :   0.8405 B(  1-C ,  3-C ) :   0.2431 B(  1-C ,  4-C ) :  -0.0768 
B(  1-C ,  7-O ) :   0.3859 B(  1-C ,  8-H ) :  -0.0876 B(  1-C ,  9-H ) :  -0.0691 
B(  1-C , 10-H ) :  -0.0861 B(  1-C , 11-H ) :  -0.0524 B(  1-C , 12-H ) :  -0.0841 
B(  1-C , 20-H ) :  -0.1059 B(  2-H ,  3-C ) :  -0.0900 B(  2-H ,  7-O ) :  -0.1098 
B(  3-C ,  4-C ) :   0.3524 B(  3-C ,  5-C ) :  -0.1829 B(  3-C ,  6-C ) :  -0.2542 
B(  3-C ,  7-O ) :  -0.1892 B(  3-C , 11-H ) :   0.8432 B(  3-C , 12-H ) :   0.8116 
B(  3-C , 13-H ) :  -0.1454 B(  4-C ,  5-C ) :   0.4621 B(  4-C ,  6-C ) :   0.4616 
B(  4-C , 11-H ) :  -0.0941 B(  4-C , 12-H ) :  -0.0769 B(  4-C , 13-H ) :   0.9044 
B(  4-C , 14-H ) :  -0.0883 B(  4-C , 15-H ) :  -0.0960 B(  4-C , 16-H ) :  -0.0729 
B(  4-C , 17-H ) :  -0.0877 B(  4-C , 18-H ) :  -0.0770 B(  4-C , 19-H ) :  -0.0890 
B(  5-C ,  6-C ) :  -0.2360 B(  5-C , 13-H ) :  -0.0624 B(  5-C , 14-H ) :   0.8516 
B(  5-C , 15-H ) :   0.8125 B(  5-C , 16-H ) :   0.7979 B(  6-C , 13-H ) :  -0.0629 
B(  6-C , 17-H ) :   0.8685 B(  6-C , 18-H ) :   0.8005 B(  6-C , 19-H ) :   0.8015 
B(  7-O , 20-H ) :   0.6303 


                     *******************************
                     * LOEWDIN POPULATION ANALYSIS *
                     *******************************

----------------------
LOEWDIN ATOMIC CHARGES
----------------------
   0 C :   -0.404891
   1 C :    0.044219
   2 H :    0.184235
   3 C :   -0.284821
   4 C :   -0.240676
   5 C :   -0.427024
   6 C :   -0.426422
   7 O :   -0.646583
   8 H :    0.162527
   9 H :    0.161013
  10 H :    0.159651
  11 H :    0.168992
  12 H :    0.169792
  13 H :    0.157240
  14 H :    0.154648
  15 H :    0.156729
  16 H :    0.155689
  17 H :    0.164642
  18 H :    0.155484
  19 H :    0.151439
  20 H :    0.284117

-------------------------------
LOEWDIN REDUCED ORBITAL CHARGES
-------------------------------
  0 C s       :     2.978094  s :     2.978094
      pz      :     1.147395  p :     3.366115
      px      :     1.086154
      py      :     1.132566
      dz2     :     0.009257  d :     0.060683
      dxz     :     0.007961
      dyz     :     0.017724
      dx2y2   :     0.007462
      dxy     :     0.018279

  1 C s       :     2.837966  s :     2.837966
      pz      :     0.965347  p :     2.972662
      px      :     1.030704
      py      :     0.976610
      dz2     :     0.024527  d :     0.145153
      dxz     :     0.020188
      dyz     :     0.040513
      dx2y2   :     0.020821
      dxy     :     0.039105

  2 H s       :     0.775530  s :     0.775530
      pz      :     0.018711  p :     0.040235
      px      :     0.010130
      py      :     0.011395

  3 C s       :     2.935715  s :     2.935715
      pz      :     1.135521  p :     3.272324
      px      :     1.055761
      py      :     1.081042
      dz2     :     0.014056  d :     0.076782
      dxz     :     0.009942
      dyz     :     0.017858
      dx2y2   :     0.017357
      dxy     :     0.017569

  4 C s       :     2.905271  s :     2.905271
      pz      :     1.067687  p :     3.240133
      px      :     1.072055
      py      :     1.100391
      dz2     :     0.022157  d :     0.095272
      dxz     :     0.014380
      dyz     :     0.021667
      dx2y2   :     0.016353
      dxy     :     0.020714

  5 C s       :     2.969869  s :     2.969869
      pz      :     1.094124  p :     3.393974
      px      :     1.150131
      py      :     1.149719
      dz2     :     0.015635  d :     0.063182
      dxz     :     0.007278
      dyz     :     0.017672
      dx2y2   :     0.014899
      dxy     :     0.007698

  6 C s       :     2.970315  s :     2.970315
      pz      :     1.114827  p :     3.392710
      px      :     1.152471
      py      :     1.125412
      dz2     :     0.018456  d :     0.063397
      dxz     :     0.004401
      dyz     :     0.014191
      dx2y2   :     0.012335
      dxy     :     0.014014

  7 O s       :     3.512935  s :     3.512935
      pz      :     1.410893  p :     4.841312
      px      :     1.806302
      py      :     1.624118
      dz2     :     0.079343  d :     0.292335
      dxz     :     0.047903
      dyz     :     0.070861
      dx2y2   :     0.042319
      dxy     :     0.051910

  8 H s       :     0.792818  s :     0.792818
      pz      :     0.020401  p :     0.044656
      px      :     0.008439
      py      :     0.015816

  9 H s       :     0.795025  s :     0.795025
      pz      :     0.020121  p :     0.043962
      px      :     0.009959
      py      :     0.013881

 10 H s       :     0.796672  s :     0.796672
      pz      :     0.008846  p :     0.043676
      px      :     0.017728
      py      :     0.017103

 11 H s       :     0.787413  s :     0.787413
      pz      :     0.024143  p :     0.043595
      px      :     0.009401
      py      :     0.010050

 12 H s       :     0.785859  s :     0.785859
      pz      :     0.015711  p :     0.044350
      px      :     0.008335
      py      :     0.020304

 13 H s       :     0.799769  s :     0.799769
      pz      :     0.009200  p :     0.042991
      px      :     0.013824
      py      :     0.019967

 14 H s       :     0.800840  s :     0.800840
      pz      :     0.009238  p :     0.044512
      px      :     0.012164
      py      :     0.023110

 15 H s       :     0.799412  s :     0.799412
      pz      :     0.018156  p :     0.043859
      px      :     0.008973
      py      :     0.016730

 16 H s       :     0.800277  s :     0.800277
      pz      :     0.008294  p :     0.044034
      px      :     0.027061
      py      :     0.008678

 17 H s       :     0.789334  s :     0.789334
      pz      :     0.008868  p :     0.046024
      px      :     0.016058
      py      :     0.021098

 18 H s       :     0.800728  s :     0.800728
      pz      :     0.023979  p :     0.043788
      px      :     0.009312
      py      :     0.010497

 19 H s       :     0.804602  s :     0.804602
      pz      :     0.008118  p :     0.043959
      px      :     0.025848
      py      :     0.009992

 20 H s       :     0.592611  s :     0.592611
      pz      :     0.054530  p :     0.123272
      px      :     0.037521
      py      :     0.031221


---------------------------------
LOEWDIN BOND ORDERS (THRESH 0.050000)
---------------------------------
B(  0-C ,  1-C ) :   1.0490 B(  0-C ,  3-C ) :   0.0810 B(  0-C ,  7-O ) :   0.1731 
B(  0-C ,  8-H ) :   0.9173 B(  0-C ,  9-H ) :   0.9169 B(  0-C , 10-H ) :   0.9188 
B(  1-C ,  2-H ) :   0.7905 B(  1-C ,  3-C ) :   1.0051 B(  1-C ,  4-C ) :   0.0555 
B(  1-C ,  7-O ) :   1.4173 B(  2-H ,  7-O ) :   0.0969 B(  3-C ,  4-C ) :   1.0780 
B(  3-C ,  5-C ) :   0.0636 B(  3-C ,  6-C ) :   0.0643 B(  3-C ,  7-O ) :   0.1552 
B(  3-C , 11-H ) :   0.8749 B(  3-C , 12-H ) :   0.8697 B(  4-C ,  5-C ) :   1.1092 
B(  4-C ,  6-C ) :   1.1097 B(  4-C , 13-H ) :   0.8604 B(  5-C ,  6-C ) :   0.0716 
B(  5-C , 14-H ) :   0.9205 B(  5-C , 15-H ) :   0.9230 B(  5-C , 16-H ) :   0.9240 
B(  6-C , 17-H ) :   0.9075 B(  6-C , 18-H ) :   0.9240 B(  6-C , 19-H ) :   0.9221 
B(  7-O , 20-H ) :   0.9581 

------------------------------------------
LOEWDIN REDUCED ORBITAL POPULATIONS PER MO
-------------------------------------------
THRESHOLD FOR PRINTING IS 0.1%%
                      0         1         2         3         4         5   
                 -18.94479 -10.07277 -10.02426 -10.01298 -10.00836 -10.00524
                   2.00000   2.00000   2.00000   2.00000   2.00000   2.00000
                  --------  --------  --------  --------  --------  --------
 0 C  s               0.0       0.0       0.0       0.0      99.7       0.0
 1 C  s               0.0      99.4       0.0       0.0       0.0       0.0
 3 C  s               0.0       0.0       0.0      99.7       0.0       0.0
 4 C  s               0.0       0.0      99.6       0.0       0.0       0.0
 5 C  s               0.0       0.0       0.0       0.0       0.0      99.7
 7 O  s              99.9       0.0       0.0       0.0       0.0       0.0
 7 O  dyz             0.0       0.2       0.0       0.0       0.0       0.0

                      6         7         8         9        10        11   
                 -10.00188  -0.98327  -0.76683  -0.71285  -0.64020  -0.63790
                   2.00000   2.00000   2.00000   2.00000   2.00000   2.00000
                  --------  --------  --------  --------  --------  --------
 0 C  s               0.0       0.9       1.7      20.7       2.7      13.6
 0 C  pz              0.0       0.3       0.0       0.0       0.0       0.1
 0 C  px              0.0       0.7       0.6       1.2       0.2       0.8
 0 C  py              0.0       0.6       0.0       0.1       0.0       0.0
 1 C  s               0.0       9.5       4.0      13.6       0.0       0.1
 1 C  pz              0.0       4.4       0.1       1.3       0.5       0.7
 1 C  px              0.0       0.3       1.2       1.4       1.7       7.7
 1 C  py              0.0       3.8       2.3       3.5       0.2       0.2
 1 C  dyz             0.0       0.6       0.0       0.0       0.0       0.0
 1 C  dx2y2           0.0       0.1       0.0       0.0       0.0       0.0
 1 C  dxy             0.0       0.0       0.0       0.0       0.0       0.2
 2 H  s               0.0       0.7       0.6       2.3       0.0       0.0
 2 H  pz              0.0       0.1       0.0       0.1       0.0       0.0
 3 C  s               0.0       0.8      15.7       3.1       4.3      13.4
 3 C  pz              0.0       0.0       0.0       0.5       0.9       0.0
 3 C  px              0.0       0.5       1.5       5.3       0.0       0.0
 3 C  py              0.0       0.9       0.6       0.1       0.0       0.3
 4 C  s               0.0       0.1      24.5       4.3       0.0       0.0
 4 C  pz              0.0       0.0       0.1       0.0      12.2       2.6
 4 C  px              0.0       0.2       0.5       1.7       2.6       4.4
 4 C  py              0.0       0.0       0.2       0.9       0.0       4.4
 4 C  dz2             0.0       0.0       0.0       0.0       0.1       0.0
 4 C  dyz             0.0       0.0       0.0       0.0       0.2       0.1
 4 C  dx2y2           0.0       0.0       0.0       0.0       0.0       0.1
 5 C  s               0.0       0.0      10.1       4.2      28.2       0.0
 5 C  pz              0.0       0.0       2.4       0.4       0.9       0.2
 5 C  px              0.0       0.0       0.5       0.0       0.1       0.2
 5 C  py              0.0       0.0       0.2       0.0       0.0       0.2
 6 C  s              99.7       0.0       9.3       5.0       9.8      17.6
 6 C  pz              0.0       0.0       1.6       0.3       0.7       0.2
 6 C  px              0.0       0.1       0.1       0.0       0.2       0.2
 6 C  py              0.0       0.0       1.4       0.1       0.0       0.3
 7 O  s               0.0      60.0       1.7       3.2       0.0       0.0
 7 O  pz              0.0       0.0       0.6       3.2       0.0       0.0
 7 O  px              0.0       0.0       0.1       0.1       0.2       0.2
 7 O  py              0.0       2.3       0.3       1.3       0.0       0.0
 7 O  dxz             0.0       0.0       0.0       0.0       0.0       0.1
 7 O  dyz             0.0       0.1       0.2       1.1       0.0       0.0
 7 O  dx2y2           0.0       0.1       0.1       0.3       0.0       0.1
 7 O  dxy             0.0       0.0       0.1       0.0       0.1       0.4
 8 H  s               0.0       0.0       0.2       3.7       0.6       3.2
 8 H  pz              0.0       0.0       0.0       0.2       0.0       0.2
 8 H  py              0.0       0.0       0.0       0.1       0.0       0.1
 9 H  s               0.0       0.0       0.2       3.4       0.6       3.1
 9 H  pz              0.0       0.0       0.0       0.2       0.0       0.2
10 H  s               0.0       0.1       0.2       3.3       0.7       3.7
10 H  px              0.0       0.0       0.0       0.2       0.0       0.1
10 H  py              0.0       0.0       0.0       0.1       0.0       0.2
11 H  s               0.0       0.0       1.9       0.5       1.4       3.0
11 H  pz              0.0       0.0       0.1       0.0       0.1       0.2
12 H  s               0.0       0.0       2.1       0.7       0.7       3.3
12 H  pz              0.0       0.0       0.1       0.0       0.0       0.1
12 H  py              0.0       0.0       0.1       0.0       0.0       0.2
13 H  s               0.0       0.0       3.1       0.7       0.0       0.0
13 H  py              0.0       0.0       0.2       0.1       0.0       0.0
14 H  s               0.0       0.0       1.3       0.6       6.5       0.0
14 H  px              0.0       0.0       0.0       0.0       0.1       0.0
14 H  py              0.0       0.0       0.1       0.0       0.4       0.0
15 H  s               0.0       0.0       1.3       0.6       6.9       0.1
15 H  pz              0.0       0.0       0.1       0.0       0.3       0.0
15 H  py              0.0       0.0       0.0       0.0       0.3       0.0
16 H  s               0.0       0.0       1.3       0.8       6.9       0.0
16 H  px              0.0       0.0       0.1       0.1       0.6       0.0
17 H  s               0.0       0.0       1.2       0.8       2.2       3.9
17 H  px              0.0       0.0       0.0       0.0       0.1       0.1
17 H  py              0.0       0.0       0.1       0.0       0.1       0.2
18 H  s               0.0       0.0       1.1       0.8       2.8       4.0
18 H  pz              0.0       0.0       0.1       0.1       0.2       0.3
19 H  s               0.0       0.0       1.2       0.9       2.0       4.6
19 H  px              0.0       0.0       0.1       0.1       0.2       0.4
20 H  s               0.0      10.1       0.5       1.2       0.0       0.0
20 H  pz              0.0       1.7       0.1       0.2       0.0       0.0
20 H  px              0.0       0.3       0.0       0.0       0.0       0.0
20 H  py              0.0       0.3       0.0       0.1       0.0       0.0

                     12        13        14        15        16        17   
                  -0.57231  -0.51651  -0.43829  -0.43304  -0.42179  -0.38915
                   2.00000   2.00000   2.00000   2.00000   2.00000   2.00000
                  --------  --------  --------  --------  --------  --------
 0 C  s               6.6       0.1       0.0       0.9       0.1       0.0
 0 C  pz              0.0       0.2       5.5       3.6       2.1       0.0
 0 C  px              3.0       0.4       2.8      10.3       0.6       0.1
 0 C  py              1.7       0.9       0.0       0.7       0.8      10.5
 0 C  dxy             0.1       0.0       0.0       0.1       0.0       0.0
 1 C  s               9.9       0.1       0.6       3.1       0.1       0.4
 1 C  pz              1.2       0.8      16.8       0.3       4.7       1.0
 1 C  px              2.2       0.7       2.2       2.4       1.3       1.6
 1 C  py              4.9       7.0       1.9       6.9       1.0       0.1
 1 C  dyz             0.0       0.1       0.1       0.0       0.0       0.1
 1 C  dx2y2           0.1       0.0       0.1       0.0       0.1       0.3
 2 H  s               6.6       0.7       5.7       0.1       0.8       0.8
 2 H  pz              0.4       0.1       0.0       0.0       0.0       0.0
 2 H  py              0.1       0.0       0.3       0.0       0.0       0.0
 3 C  s               1.9       2.7       0.3       0.7       0.4       0.2
 3 C  pz              0.7       0.0      13.0       0.0       1.9       2.5
 3 C  px              1.9       8.0       0.2       5.4       0.2       2.6
 3 C  py              3.4       0.6       1.5       0.2      14.9       2.6
 3 C  dxy             0.1       0.0       0.0       0.1       0.0       0.0
 4 C  s               2.2      12.0       0.3       0.4       1.0       0.0
 4 C  pz              0.1       0.3       1.5       0.3       0.0       1.9
 4 C  px              0.2       1.0       0.2      11.3       2.1       4.6
 4 C  py              3.0       3.3       0.8       0.3      12.2       1.2
 5 C  s               0.6       3.3       0.5       0.0       0.1       0.2
 5 C  pz              0.4       5.7       1.3       1.9       3.0       8.9
 5 C  px              0.0       0.3       3.6       3.9       2.0       2.5
 5 C  py              0.7       2.0       0.0       0.5       4.8       0.5
 6 C  s               1.4       3.2       0.0       0.0       0.6       0.0
 6 C  pz              0.1       2.4       0.7       0.2       8.9       7.5
 6 C  px              0.0       0.0       0.0       5.0       4.5       7.5
 6 C  py              1.0       5.3       0.5       2.0       0.1       3.7
 6 C  dyz             0.0       0.2       0.0       0.0       0.1       0.0
 7 O  s               0.6       0.1       0.2       2.3       1.2       1.8
 7 O  pz             18.2       8.4      15.2       4.4       1.7       2.9
 7 O  px              3.1       0.2       1.0       4.5       0.9       4.0
 7 O  py              0.9       0.1       4.5       8.8       4.9       3.5
 7 O  dz2             0.1       0.1       0.7       0.0       0.3       0.2
 7 O  dxz             0.1       0.0       0.3       0.0       0.1       0.0
 7 O  dyz             0.9       0.1       0.1       0.1       0.0       0.0
 7 O  dx2y2           0.0       0.0       0.1       0.7       0.0       0.0
 7 O  dxy             0.2       0.0       0.0       0.1       0.1       0.0
 8 H  s               2.6       0.0       1.2       2.3       0.1       2.0
 8 H  pz              0.1       0.0       0.0       0.0       0.0       0.1
 9 H  s               3.3       0.0       2.0       0.3       1.5       1.3
 9 H  pz              0.2       0.0       0.0       0.1       0.0       0.1
10 H  s               2.2       0.4       0.3       3.3       0.0       1.3
10 H  py              0.1       0.0       0.0       0.1       0.0       0.0
11 H  s               1.2       2.1       5.9       0.1       0.1       0.0
11 H  pz              0.1       0.1       0.2       0.0       0.0       0.0
12 H  s               1.1       1.8       0.2       0.5       6.9       3.2
12 H  pz              0.1       0.0       0.0       0.0       0.1       0.0
13 H  s               1.4       7.9       0.1       2.6       2.3       0.0
13 H  px              0.1       0.2       0.0       0.0       0.0       0.0
13 H  py              0.1       0.3       0.0       0.1       0.0       0.0
14 H  s               0.6       2.8       0.0       1.3       1.1       0.6
14 H  py              0.0       0.1       0.0       0.0       0.0       0.0
15 H  s               0.2       1.9       0.4       0.4       2.5       4.0
15 H  py              0.0       0.1       0.0       0.0       0.0       0.1
16 H  s               0.3       1.9       1.9       0.9       0.6       0.7
16 H  px              0.0       0.1       0.1       0.0       0.0       0.0
17 H  s               0.8       2.7       0.2       2.2       0.2       0.2
18 H  s               0.4       1.8       0.3       0.1       2.8       6.1
18 H  pz              0.0       0.1       0.0       0.0       0.0       0.2
19 H  s               0.6       1.9       0.0       0.8       2.7       3.7
19 H  px              0.0       0.1       0.0       0.0       0.1       0.1
20 H  s               5.0       1.8       3.6       2.2       0.2       1.6
20 H  pz              0.2       0.0       0.0       0.1       0.0       0.0
20 H  py              0.2       0.0       0.3       0.0       0.0       0.0

                     18        19        20        21        22        23   
                  -0.37958  -0.37593  -0.34672  -0.34001  -0.33232  -0.31741
                   2.00000   2.00000   2.00000   2.00000   2.00000   2.00000
                  --------  --------  --------  --------  --------  --------
 0 C  pz             11.2       0.0       8.5       1.0      21.4       1.5
 0 C  px              0.4       0.2       2.8      12.8       7.4       0.4
 0 C  py              0.7      20.5       7.3       0.7       1.1       0.1
 0 C  dz2             0.0       0.1       0.0       0.0       0.0       0.0
 0 C  dyz             0.1       0.0       0.0       0.0       0.6       0.0
 0 C  dxy             0.0       0.0       0.2       0.2       0.0       0.0
 1 C  s               0.1       0.1       0.0       0.0       0.3       0.2
 1 C  pz              2.7       1.3       0.4       0.6       3.1       2.5
 1 C  px              1.3       6.0       1.1       8.2       4.4       0.0
 1 C  py              0.1       0.6       0.0       0.5       0.6       0.3
 1 C  dyz             0.0       0.0       0.0       0.0       0.4       0.3
 1 C  dxy             0.0       0.0       0.0       0.1       0.0       0.1
 2 H  s               1.7       0.1       0.1       0.4       3.4       2.0
 3 C  s               0.0       0.8       0.2       0.4       0.1       0.1
 3 C  pz              9.5       0.6       0.6       0.2       1.3      15.3
 3 C  px              1.0       0.3       0.1       0.0       0.1       0.7
 3 C  py              0.1       6.1       1.6       2.4       1.0       0.4
 3 C  dyz             0.1       0.0       0.0       0.0       0.0       0.3
 4 C  s               0.0       0.0       0.1       0.1       0.1       0.0
 4 C  pz              9.9       0.0       1.7       0.0       0.1       0.6
 4 C  px              0.7       0.3       0.0       0.0       0.0       0.2
 4 C  py              0.2       2.3       0.1       0.0       0.1       0.0
 4 C  dxz             0.0       0.0       0.1       0.1       0.0       0.0
 4 C  dxy             0.0       0.2       0.0       0.0       0.0       0.0
 5 C  pz              0.1       2.0       0.8       0.2       0.3       4.3
 5 C  px             10.0       0.0      10.0       2.4       8.0       4.0
 5 C  py              8.1      11.1      11.7       0.7       0.0       5.9
 5 C  dyz             0.0       0.0       0.0       0.0       0.0       0.1
 5 C  dx2y2           0.1       0.0       0.1       0.0       0.1       0.1
 5 C  dxy             0.0       0.0       0.1       0.0       0.0       0.0
 6 C  s               0.3       0.0       0.0       0.0       0.0       0.0
 6 C  pz              0.1       5.6       1.0       1.2       0.6       7.0
 6 C  px              0.3       0.9       0.8      26.8       0.6       3.9
 6 C  py              7.8       1.2       7.9       2.6       0.2       2.0
 6 C  dz2             0.0       0.0       0.1       0.0       0.0       0.2
 6 C  dx2y2           0.0       0.0       0.0       0.2       0.0       0.0
 6 C  dxy             0.0       0.0       0.1       0.2       0.0       0.0
 7 O  s               0.4       0.0       0.5       0.3       0.2       0.2
 7 O  pz              0.8       0.4       1.7       1.1       1.4       0.3
 7 O  px              1.2       9.1       1.9       0.7       0.3       0.0
 7 O  py              3.5       0.3       3.1       4.1      10.4       8.6
 7 O  dz2             0.1       0.1       0.0       0.1       0.0       0.0
 7 O  dxz             0.1       0.2       0.0       0.3       0.1       0.0
 7 O  dxy             0.3       0.3       0.1       0.3       0.0       0.0
 8 H  s               4.6       4.3       0.1       0.0      12.2       0.4
 8 H  pz              0.0       0.2       0.0       0.0       0.1       0.0
 8 H  px              0.0       0.0       0.0       0.1       0.0       0.0
 8 H  py              0.1       0.0       0.1       0.0       0.2       0.0
 9 H  s               2.1       2.5       5.2       0.0       9.1       0.8
 9 H  pz              0.0       0.1       0.0       0.0       0.0       0.0
 9 H  px              0.0       0.0       0.1       0.1       0.0       0.0
 9 H  py              0.1       0.0       0.0       0.0       0.2       0.0
10 H  s               0.0       4.7       6.9       5.5       1.5       0.5
10 H  pz              0.1       0.0       0.0       0.0       0.2       0.0
10 H  px              0.0       0.1       0.1       0.0       0.0       0.0
10 H  py              0.0       0.0       0.1       0.1       0.0       0.0
11 H  s               4.1       2.1       0.2       0.0       0.4       7.5
12 H  s               1.6       1.7       0.5       0.2       0.0       5.9
12 H  pz              0.0       0.1       0.0       0.0       0.0       0.0
12 H  py              0.1       0.0       0.0       0.0       0.0       0.1
13 H  s               0.3       1.1       0.1       0.0       0.0       0.2
14 H  s               1.0       2.8      10.5       1.0       0.9       0.3
14 H  px              0.1       0.0       0.0       0.0       0.0       0.1
14 H  py              0.0       0.0       0.2       0.0       0.1       0.0
15 H  s               2.1       4.3       0.4       0.0       0.7       7.2
15 H  pz              0.1       0.1       0.0       0.0       0.0       0.0
16 H  s               6.0       0.0       3.6       0.9       4.5       3.5
16 H  px              0.2       0.0       0.0       0.0       0.1       0.1
16 H  py              0.0       0.1       0.1       0.0       0.0       0.0
17 H  s               2.0       0.1       4.1      10.0       0.0       0.3
17 H  py              0.0       0.0       0.0       0.3       0.0       0.0
18 H  s               0.1       3.0       1.5       0.0       0.4       6.9
18 H  px              0.0       0.0       0.0       0.2       0.0       0.0
19 H  s               1.0       0.5       0.0      10.8       0.4       3.1
19 H  py              0.0       0.0       0.1       0.1       0.0       0.0
20 H  s               0.0       0.0       0.2       0.4       0.1       0.0
20 H  px              0.0       0.1       0.1       0.0       0.0       0.0
20 H  py              0.1       0.0       0.0       0.0       0.1       0.1

                     24        25        26        27        28        29   
                  -0.30156  -0.28809  -0.28396  -0.27124  -0.22751   0.07377
                   2.00000   2.00000   2.00000   2.00000   2.00000   0.00000
                  --------  --------  --------  --------  --------  --------
 0 C  s               0.0       0.0       0.0       0.7       0.9       2.9
 0 C  pz              0.4       0.1       0.0       0.1       1.1       0.7
 0 C  px              0.2       0.0       0.7       3.8       5.0       2.2
 0 C  py              2.1       2.3       2.6       2.4       1.5       1.2
 0 C  dz2             0.0       0.0       0.0       0.0       0.0       0.2
 0 C  dyz             0.0       0.0       0.0       0.0       0.0       0.2
 0 C  dx2y2           0.0       0.0       0.0       0.1       0.0       0.3
 0 C  dxy             0.0       0.0       0.1       0.0       0.1       0.1
 1 C  s               0.1       0.0       0.0       0.2       0.0       3.8
 1 C  pz              0.9       0.2       1.1       2.7       1.1       4.4
 1 C  px              0.4       0.0       0.3       0.8       6.2       0.1
 1 C  py              3.0       1.2       1.3       9.0       0.4       6.0
 1 C  dz2             0.3       0.0       0.0       0.4       0.1       0.1
 1 C  dxz             0.1       0.1       0.0       0.3       0.1       0.0
 1 C  dyz             0.0       0.0       0.0       0.1       0.1       0.4
 1 C  dx2y2           0.0       0.0       0.0       0.1       0.0       0.2
 1 C  dxy             0.1       0.0       0.0       0.0       1.2       0.1
 2 H  s               4.1       0.1       1.0       7.7       0.0       0.9
 2 H  px              0.0       0.0       0.0       0.0       0.1       0.2
 2 H  py              0.0       0.0       0.0       0.0       0.0       0.7
 3 C  s               0.3       0.4       0.2       0.7       0.3       3.2
 3 C  pz              0.4       2.2       6.3       0.5       0.3       0.1
 3 C  px              2.7       9.0       4.7       2.2       6.2       0.8
 3 C  py              0.8       0.5       1.5      11.1       3.5       2.4
 3 C  dz2             0.0       0.0       0.0       0.2       0.0       0.0
 3 C  dxz             0.0       0.1       0.1       0.1       0.0       0.2
 3 C  dyz             0.0       0.1       0.2       0.0       0.1       0.4
 3 C  dx2y2           0.0       0.0       0.1       0.4       0.0       0.2
 3 C  dxy             0.0       0.1       0.1       0.1       0.1       0.1
 4 C  s               0.2       0.0       0.1       0.1       0.1       1.8
 4 C  pz              0.2       8.1      13.5       0.1       0.2       0.1
 4 C  px              0.2      10.9       5.2       4.5       2.7       1.1
 4 C  py             16.1       1.1       0.1       7.8       0.9       0.6
 4 C  dz2             0.4       0.1       0.0       0.2       0.0       0.0
 4 C  dxz             0.0       0.1       0.2       0.0       0.0       0.0
 4 C  dyz             0.1       0.4       0.2       0.1       0.0       0.0
 4 C  dx2y2           0.0       0.1       0.3       0.1       0.0       0.0
 4 C  dxy             0.1       0.2       0.1       0.0       0.3       0.2
 5 C  s               0.3       0.4       0.4       0.1       0.0       5.8
 5 C  pz              0.7       8.7      10.9       1.4       0.2       0.3
 5 C  px              0.1       8.2       0.7       0.7       0.1       0.0
 5 C  py              6.9       0.3       0.3       3.5       0.1       0.2
 5 C  dz2             0.2       0.0       0.0       0.1       0.0       0.1
 5 C  dxz             0.0       0.0       0.1       0.0       0.0       0.0
 5 C  dyz             0.1       0.2       0.1       0.0       0.0       0.0
 5 C  dx2y2           0.0       0.1       0.1       0.0       0.0       0.0
 6 C  s               0.3       0.4       0.3       0.3       0.0       6.4
 6 C  pz              0.1       7.5       9.2       0.9       0.0       0.3
 6 C  px              0.1       1.4       1.7       2.3       1.2       0.2
 6 C  py             13.7       0.6       1.6       3.0       1.2       0.7
 6 C  dz2             0.3       0.1       0.1       0.1       0.0       0.0
 6 C  dx2y2           0.0       0.0       0.1       0.0       0.1       0.2
 6 C  dxy             0.1       0.1       0.1       0.0       0.1       0.0
 7 O  s               1.5       0.2       0.1       1.2       0.0       6.3
 7 O  pz              2.4       0.6       0.4       0.3       6.6       1.6
 7 O  px              0.8       7.6       7.4       1.0      46.0       0.1
 7 O  py             11.3       2.3       0.0       9.9       0.9       2.0
 7 O  dz2             0.4       0.0       0.1       1.1       0.4       0.0
 7 O  dxz             0.2       0.1       0.1       0.4       0.3       0.3
 7 O  dyz             0.0       0.0       0.0       0.3       0.0       2.8
 7 O  dx2y2           0.1       0.1       0.0       0.2       0.0       0.1
 7 O  dxy             0.1       0.0       0.0       0.0       0.5       0.3
 8 H  s               0.1       0.4       0.7       0.1       0.9       3.0
 8 H  pz              0.0       0.0       0.0       0.0       0.0       0.3
 8 H  px              0.0       0.0       0.0       0.0       0.1       0.1
 8 H  py              0.0       0.0       0.0       0.0       0.0       0.1
 9 H  s               1.5       0.6       0.5       1.5       0.1       0.4
 9 H  pz              0.0       0.0       0.0       0.0       0.0       0.3
10 H  s               0.8       1.4       2.6       0.1       0.4       0.2
10 H  py              0.0       0.0       0.0       0.0       0.0       0.3
11 H  s               0.0       2.8       2.8       3.2       0.0       0.9
11 H  pz              0.0       0.0       0.0       0.0       0.0       0.4
11 H  px              0.0       0.1       0.1       0.0       0.1       0.1
12 H  s               0.0       0.5       4.4       3.2       0.6       3.6
12 H  pz              0.0       0.0       0.0       0.1       0.0       0.5
[...]
 2 H  s               6.2       0.3       0.2       0.0       0.0       0.0
 2 H  pz             12.9       0.0       0.1       0.0       0.0       0.0
 2 H  px              1.0       0.0       0.0       0.0       0.0       0.0
 2 H  py              2.3       1.2       0.2       0.0       0.0       0.0
 3 C  s               0.5       0.1       0.0      10.8       3.0       0.4
 3 C  pz              2.0       0.1       0.0       0.0       0.0       0.0
 3 C  py              0.2       0.2       0.0       0.0       0.0       0.0
 3 C  dz2             1.8       0.1       0.0       0.0       0.0       0.0
 3 C  dxz             1.1       0.1       0.0       0.0       0.0       0.0
 3 C  dyz             1.7       0.2       0.0       0.0       0.0       0.0
 3 C  dx2y2           0.0       0.1       0.0       0.0       0.0       0.0
 3 C  dxy             0.1       0.0       0.0       0.0       0.0       0.0
 4 C  s               0.3       0.1       0.1       0.0      12.4       4.3
 4 C  pz              0.2       0.1       0.0       0.0       0.0       0.0
 4 C  px              0.5       0.1       0.0       0.0       0.0       0.0
 4 C  py              3.0       0.0       0.0       0.0       0.0       0.0
 4 C  dz2             1.1       0.0       0.0       0.0       0.0       0.0
 4 C  dxz             0.5       0.0       0.0       0.0       0.0       0.0
 4 C  dyz             1.2       0.0       0.0       0.0       0.0       0.0
 4 C  dxy             2.9       0.1       0.0       0.0       0.0       0.0
 5 C  s               0.2       0.1       0.0       1.7      27.6      53.7
 5 C  pz              0.3       0.0       0.0       0.0       0.0       0.0
 5 C  px              0.2       0.0       0.0       0.0       0.0       0.0
 5 C  dz2             0.7       0.0       0.0       0.0       0.0       0.0
 5 C  dxz             0.1       0.0       0.0       0.0       0.0       0.0
 6 C  s               0.5       0.0       0.0       0.2      47.6      25.1
 6 C  pz              0.5       0.0       0.0       0.0       0.0       0.0
 6 C  py              0.4       0.0       0.0       0.0       0.0       0.0
 6 C  dz2             0.3       0.0       0.0       0.0       0.0       0.0
 6 C  dyz             0.9       0.0       0.0       0.0       0.0       0.0
 6 C  dxy             0.4       0.0       0.0       0.0       0.0       0.0
 7 O  s               0.3      26.0       6.6       0.0       0.0       0.0
 7 O  pz              0.3       5.5      16.1       0.0       0.0       0.0
 7 O  px              0.4       0.1       2.7       0.0       0.0       0.0
 7 O  py              0.0      14.0       0.6       0.0       0.0       0.0
 7 O  dz2             0.1       3.6       7.7       0.0       0.0       0.0
 7 O  dxz             0.2       4.0       8.2       0.0       0.0       0.0
 7 O  dyz             0.0       8.8      20.5       0.0       0.0       0.0
 7 O  dx2y2           0.1       7.0       0.1       0.0       0.0       0.0
 7 O  dxy             0.4       0.0       3.3       0.0       0.0       0.0
 8 H  pz              0.1       0.2       0.0       0.0       0.0       0.0
 8 H  px              0.2       0.0       0.0       0.0       0.0       0.0
 9 H  s               0.6       0.0       0.0       0.0       0.0       0.0
 9 H  pz              1.3       0.0       0.0       0.0       0.0       0.0
 9 H  px              0.2       0.0       0.0       0.0       0.0       0.0
 9 H  py              0.5       0.0       0.0       0.0       0.0       0.0
10 H  py              0.1       0.0       0.0       0.0       0.0       0.0
11 H  s               1.8       0.0       0.0       0.0       0.0       0.0
11 H  pz              3.5       0.0       0.0       0.0       0.0       0.0
11 H  px              0.4       0.0       0.0       0.0       0.0       0.0
11 H  py              0.7       0.0       0.0       0.0       0.0       0.0
12 H  s               0.4       0.0       0.0       0.0       0.0       0.0
12 H  pz              0.1       0.1       0.0       0.0       0.0       0.0
12 H  py              0.8       0.1       0.0       0.0       0.0       0.0
13 H  s               2.5       0.0       0.0       0.0       0.0       0.0
13 H  pz              0.2       0.0       0.0       0.0       0.0       0.0
13 H  px              1.8       0.0       0.0       0.0       0.0       0.0
13 H  py              4.0       0.1       0.0       0.0       0.0       0.0
14 H  py              0.2       0.0       0.0       0.0       0.0       0.0
16 H  s               0.1       0.0       0.0       0.0       0.0       0.0
16 H  px              0.3       0.0       0.0       0.0       0.0       0.0
17 H  s               0.2       0.0       0.0       0.0       0.0       0.0
17 H  px              0.1       0.0       0.0       0.0       0.0       0.0
17 H  py              0.3       0.0       0.0       0.0       0.0       0.0
20 H  s               0.1       0.6      13.4       0.0       0.0       0.0
20 H  pz              0.0       0.9      11.6       0.0       0.0       0.0
20 H  px              0.0       0.2       2.3       0.0       0.0       0.0
20 H  py              0.0       0.1       2.7       0.0       0.0       0.0

                    204       205       206       207   
                  22.08279  22.12280  22.18275  43.67399
                   0.00000   0.00000   0.00000   0.00000
                  --------  --------  --------  --------
 0 C  s               9.7       0.6       0.3       0.0
 1 C  s               9.1      63.2       3.9       0.1
 3 C  s              75.3       3.8       6.4       0.0
 4 C  s               5.0      10.2      67.9       0.0
 5 C  s               0.3       5.2      11.1       0.0
 6 C  s               0.1      16.6      10.0       0.0
 7 O  s               0.0       0.1       0.0      99.9


                      *****************************
                      * MAYER POPULATION ANALYSIS *
                      *****************************

  NA   - Mulliken gross atomic population
  ZA   - Total nuclear charge
  QA   - Mulliken gross atomic charge
  VA   - Mayer's total valence
  BVA  - Mayer's bonded valence
  FA   - Mayer's free valence

  ATOM       NA         ZA         QA         VA         BVA        FA
  0 C      6.5366     6.0000    -0.5366     3.8234     3.8234    -0.0000
  1 C      6.0086     6.0000    -0.0086     3.6831     3.6831    -0.0000
  2 H      0.8452     1.0000     0.1548     0.9484     0.9484    -0.0000
  3 C      6.3117     6.0000    -0.3117     3.5163     3.5163    -0.0000
  4 C      5.9834     6.0000     0.0166     3.4555     3.4555    -0.0000
  5 C      6.5572     6.0000    -0.5572     3.7662     3.7662    -0.0000
  6 C      6.5572     6.0000    -0.5572     3.7668     3.7668    -0.0000
  7 O      8.4775     8.0000    -0.4775     1.7541     1.7541    -0.0000
  8 H      0.8356     1.0000     0.1644     0.9591     0.9591    -0.0000
  9 H      0.8386     1.0000     0.1614     0.9602     0.9602    -0.0000
 10 H      0.8381     1.0000     0.1619     0.9572     0.9572    -0.0000
 11 H      0.8374     1.0000     0.1626     0.9628     0.9628     0.0000
 12 H      0.8388     1.0000     0.1612     0.9590     0.9590     0.0000
 13 H      0.8426     1.0000     0.1574     0.9568     0.9568    -0.0000
 14 H      0.8370     1.0000     0.1630     0.9588     0.9588    -0.0000
 15 H      0.8391     1.0000     0.1609     0.9600     0.9600     0.0000
 16 H      0.8417     1.0000     0.1583     0.9599     0.9599    -0.0000
 17 H      0.8251     1.0000     0.1749     0.9583     0.9583    -0.0000
 18 H      0.8440     1.0000     0.1560     0.9616     0.9616    -0.0000
 19 H      0.8497     1.0000     0.1503     0.9611     0.9611    -0.0000
 20 H      0.6548     1.0000     0.3452     0.8817     0.8817    -0.0000

  Mayer bond orders larger than 0.100000
B(  0-C ,  1-C ) :   0.9219 B(  0-C ,  8-H ) :   0.9699 B(  0-C ,  9-H ) :   0.9716 
B(  0-C , 10-H ) :   0.9746 B(  1-C ,  2-H ) :   0.9600 B(  1-C ,  3-C ) :   0.9106 
B(  1-C ,  7-O ) :   0.9160 B(  3-C ,  4-C ) :   0.8926 B(  3-C , 11-H ) :   0.9745 
B(  3-C , 12-H ) :   0.9710 B(  4-C ,  5-C ) :   0.8945 B(  4-C ,  6-C ) :   0.8984 
B(  4-C , 13-H ) :   0.9702 B(  5-C , 14-H ) :   0.9773 B(  5-C , 15-H ) :   0.9743 
B(  5-C , 16-H ) :   0.9679 B(  6-C , 17-H ) :   0.9795 B(  6-C , 18-H ) :   0.9732 
B(  6-C , 19-H ) :   0.9711 B(  7-O , 20-H ) :   0.8697 

-------
TIMINGS
-------

Total SCF time: 0 days 0 hours 0 min 34 sec 

Total time                  ....      34.183 sec
Sum of individual times     ....      33.592 sec  ( 98.3%)

SCF preparation             ....       0.375 sec  (  1.1%)
Fock matrix formation       ....      32.037 sec  ( 93.7%)
  Startup                   ....       0.082 sec  (  0.3% of F)
  Split-RI-J                ....       5.286 sec  ( 16.5% of F)
  XC integration            ....      20.196 sec  ( 63.0% of F)
    XC Preparation          ....       0.000 sec  (  0.0% of XC)
    Basis function eval.    ....       3.731 sec  ( 18.5% of XC)
    Density eval.           ....       6.039 sec  ( 29.9% of XC)
    XC-Functional eval.     ....       2.560 sec  ( 12.7% of XC)
    XC-Potential eval.      ....       6.583 sec  ( 32.6% of XC)
  CPCM terms                ....       5.806 sec  ( 18.1% of F)
Diagonalization             ....       0.000 sec  (  0.0%)
Density matrix formation    ....       0.289 sec  (  0.8%)
Total Energy calculation    ....       0.075 sec  (  0.2%)
Population analysis         ....       0.128 sec  (  0.4%)
Orbital Transformation      ....       0.064 sec  (  0.2%)
Orbital Orthonormalization  ....       0.000 sec  (  0.0%)
DIIS solution               ....       0.571 sec  (  1.7%)
  MO trafo                  ....       0.000 sec  (  0.0 % of DIIS)
  Orb grad                  ....       0.000 sec  (  0.0 % of DIIS)
  Energy W gradient         ....       0.000 sec  (  0.0 % of DIIS)
  DIIS error                ....       0.016 sec  (  2.8 % of DIIS)
  DIIS work                 ....       0.493 sec  ( 86.3 % of DIIS)
  Form Q                    ....       0.000 sec  (  0.0 % of DIIS)
  Form QpQm                 ....       0.000 sec  (  0.0 % of DIIS)
  Exp/Cayley                ....       0.000 sec  (  0.0 % of DIIS)
  Orb update                ....       0.000 sec  (  0.0 % of DIIS)
  Wake-sleep                ....       0.030 sec  (  5.2 % of DIIS)
SOSCF solution              ....       0.053 sec  (  0.2%)
  MO trafo                  ....       0.042 sec  ( 78.9 % of SOSCF)
  Orb grad                  ....       0.001 sec  (  1.1 % of SOSCF)
  Rot update                ....       0.000 sec  (  0.2 % of SOSCF)
  Step                      ....       0.011 sec  ( 19.7 % of SOSCF)
Finished LeanSCF after  34.3 sec

Maximum memory used throughout the entire LEANSCF-calculation: 29.9 MB


-------------------------------------------------------------------------------
                          DFT DISPERSION CORRECTION                            
                                                                               
                                DFTD4 V3.4.0                                   
-------------------------------------------------------------------------------
The R2SCAN3C composite method is recognized
Using three-body term ABC
Active option DFTDOPT                   ...         5   

-------------------------   ----------------
Dispersion correction           -0.005662085
-------------------------   ----------------

------------------   -----------------
gCP correction             0.011215794
------------------   -----------------

-------------------------   --------------------
FINAL SINGLE POINT ENERGY      -312.205822045572
-------------------------   --------------------


------------------------------------------------------------------------------
                              ORCA PROPERTY CALCULATIONS
------------------------------------------------------------------------------

GBWName                                 ... sp_solv.gbw
Number of atoms                         ...     21
Number of basis functions               ...    208
Max core memory                         ...   1024 MB

Electric properties:
Dipole moment                           ... YES
Quadrupole moment                       ...  NO
Static polarizability (Dipole/Dipole)   ...  NO
Static polarizability (Dipole/Quad.)    ...  NO
Static polarizability (Quad./Quad.)     ...  NO
Static polarizability (Velocity)        ...  NO

Atomic electric properties:
Dipole moment                           ...  NO
Quadrupole moment                       ...  NO
Static polarizability                   ...  NO

Choice of electric origin               ... Center of mass
Position of electric origin             ...    -0.000014     0.000013    -0.000007

General magnetic properties:
Magnetizability                         ...  NO

EPR properties:
g-Tensor (aka g-matrix)                 ...  NO
Zero-Field splitting spin-orbit         ...  NO
Zero-field splitting spin-spin          ...  NO
Hyperfine couplings                     ...  NO (   0 nuclei)
Quadrupole couplings                    ...  NO (   0 nuclei)
Contact density                         ...  NO (   0 nuclei)

NMR properties:
Chemical shifts                         ...  NO (   0 nuclei)
Spin-rotation constants                 ...  NO (   0 nuclei)
Spin-spin couplings                     ...  NO (   0 nuclei,    0 pairs)

Choice of magnetic origin               ... GIAO
Position of magnetic origin             ...     0.000000     0.000000     0.000000

Properties with geometric perturbations:
SCF Hessian                             ...  NO
IR spectrum                             ...  NO
VCD spectrum                            ...  NO
X-ray spectroscopy properties:
SCF XES/XAS/RIXS spectra                ...  NO


-------------
DIPOLE MOMENT
-------------

Method             : SCF
Type of density    : Electron Density
Multiplicity       :   1
Irrep              :   0
Energy             :  -312.2113757548713693 Eh
Relativity type    : 
Basis              : AO
                                X                 Y                 Z
Electronic contribution:      2.364061755      -1.302756976       1.265229704
Nuclear contribution   :     -2.212858978       2.209504272      -1.157583752
                        -----------------------------------------
Total Dipole Moment    :      0.151202777       0.906747296       0.107645953
                        -----------------------------------------
Magnitude (a.u.)       :      0.925548805
Magnitude (Debye)      :      2.352558101



--------------------
Rotational spectrum 
--------------------
 
Rotational constants in cm-1:             0.131250             0.055234             0.047171 
Rotational constants in MHz :          3934.783344          1655.882493          1414.163495 

Dipole components along the rotational axes: 
x,y,z [a.u.] :     0.173089     0.456467     0.786332 
x,y,z [Debye]:     0.439956     1.160248     1.998698 

 

Dipole moment calculation done in   0.0 sec 

Maximum memory used throughout the entire PROP-calculation: 13.0 MB

--------------------------------
SUGGESTED CITATIONS FOR THIS RUN
--------------------------------

Below you find a list of papers that are relevant to this ORCA run
We neither can nor want to force you to cite these papers, but we appreciate if you do
You receive ORCA, which is the product of decades of hard work by many enthusiastic individuals, for free
The only thing we kindly ask in return is that you cite our papers,
We deeply appreciate it, if you show your appreciation for ORCA by not just citing the generic ORCA reference.

Please note that relegating all ORCA citations to the supporting information does *not* help us.
SI sections are not indexed - citations you put there will not count into any citation statistics
But we need these citations in order to attract the funding resources that allow us to do what we are doing

Therefore, if you are a happy ORCA user, please consider citing a few of the papers listed below in the main body of your paper

In addition to the list printed below, the program has created the file sp_solv.bibtex that contains the list in bibtex format
You can import this file easily into all common literature databanks and citation aid programs


List of essential papers. We consider these as the minimum necessary citations

  1. Neese,F.
     Software update: the ORCA program system, version 5.0
     WIRES Comput. Molec. Sci., 2022 12(1)e1606
     doi.org/10.1002/wcms.1606
  2. Grimme,S.; Hansen,A.; Ehlert,S.; Mewes,J.
     r2SCAN-3c: A 'Swiss army knife' composite electronic-structure method
     J. Chem. Phys., 2021 154 064103
     doi.org/10.1063/5.0040021

List of papers to cite with high priority. The work reported in these papers was absolutely
necessary for this run to complete.
Our perspective: the developers of density functionals and basis sets usually get cited in chemistry papers
Good! But without the algorithms to do something with them, the functionals or basis sets would not do anything.
Hence, in our opinion, the algorithm design and method developments papers are equally worthy of getting cited

  1. Neese,F.
     An improvement of the resolution of the identity approximation for the formation of the Coulomb matrix
     J. Comp. Chem., 2003 24(14)1740-1747
     doi.org/10.1002/jcc.10318
  2. Garcia-Rates,M.; Neese,F.
     Effect of the Solute Cavity on the Solvation Energy and its Derivatives within the Framework of the Gaussian Charge Scheme
     J. Comput. Chem., 2020 41 922-939
     doi.org/10.1002/jcc.26139
  3. Neese,F.
     The SHARK Integral Generation and Digestion System
     J. Comp. Chem., 2022  1-16
     doi.org/10.1002/jcc.26942
  4. Lehtola,S.; Steigemann,C.; Oliveira,M.; Marques,M.
     Recent developments in Libxc - A comprehensive library of functionals for density functional theory
     Software X, 2018 7 
     doi.org/10.1016/j.softx.2017.11.002
  5. Caldeweyher,E.; Bannwarth,C.; Grimme,S.
     Extension of the D3 dispersion coefficient model
     J. Chem. Phys., 2017 147 034112-XXXX
     doi.org/10.1063/1.4993215
  6. Caldeweyher,E.; Ehlert,S.; Hansen,A.; Neugebauer,H.; Spicher,S.; Bannwarth,C.; Grimme,S.
     A generally applicable atomic-charge dependent London dispersion correction
     J. Chem. Phys., 2019 150 154122-XXXX
     doi.org/10.1063/1.5090222
  7. Caldeweyher,E.; Mewes,J.; Ehlert,S.; Grimme,S.
     Extension and evaluation of the D4 London-dispersion model for periodic systems
     Phys. Chem. Chem. Phys., 2020 22(16)8499-8512
     doi.org/10.1039/D0CP00502A

List of suggested additional citations. These are papers that are important in the 'surrounding' of 
of this run, or papers that preceded the highly important papers. If you like your results we are grateful for a citation.

  1. Neese,F.
     The ORCA program system
     WIRES Comput. Molec. Sci., 2012 2(1)73-78
     doi.org/10.1002/wcms.81
  2. Neese,F.
     Software update: the ORCA program system, version 4.0
     WIRES Comput. Molec. Sci., 2018 8(1)1-6
     doi.org/10.1002/wcms.1327
  3. Neese,F.; Wennmohs,F.; Becker,U.; Riplinger,C.
     The ORCA quantum chemistry program package
     J. Chem. Phys., 2020 152 Art. No. L224108
     doi.org/10.1063/5.0004608

List of optional additional citations

  1. Neese,F.
     Approximate second-order SCF convergence for spin unrestricted wavefunctions
     Chem. Phys. Lett., 2000 325(1-3)93-98
     doi.org/10.1016/s0009-2614(00)00662-x

Timings for individual modules:

Sum of individual times          ...       36.312 sec (=   0.605 min)
Startup calculation              ...        1.513 sec (=   0.025 min)   4.2 %
SCF iterations                   ...       34.673 sec (=   0.578 min)  95.5 %
Property calculations            ...        0.126 sec (=   0.002 min)   0.3 %
                             ****ORCA TERMINATED NORMALLY****
TOTAL RUN TIME: 0 days 0 hours 0 minutes 37 seconds 267 msec
