
                                 *****************
                                 * O   R   C   A *
                                 *****************

                                            #,                                       
                                            ###                                      
                                            ####                                     
                                            #####                                    
                                            ######                                   
                                           ########,                                 
                                     ,,################,,,,,                         
                               ,,#################################,,                 
                          ,,##########################################,,             
                       ,#########################################, ''#####,          
                    ,#############################################,,   '####,        
                  ,##################################################,,,,####,       
                ,###########''''           ''''###############################       
              ,#####''   ,,,,##########,,,,          '''####'''          '####       
            ,##' ,,,,###########################,,,                        '##       
           ' ,,###''''                  '''############,,,                           
         ,,##''                                '''############,,,,        ,,,,,,###''
      ,#''                                            '''#######################'''  
     '                                                          ''''####''''         
             ,#######,   #######,   ,#######,      ##                                
            ,#'     '#,  ##    ##  ,#'     '#,    #''#        ,####,   ,####,        
            ##       ##  ##   ,#'  ##            #'  '#       #'       #'  '#        
            ##       ##  #######   ##           ,######,      #####,   #    #        
            '#,     ,#'  ##    ##  '#,     ,#' ,#      #,     #,   #   #,  ,#        
             '#######'   ##     ##  '#######'  #'      '#     '####' # '####'        



                #########################################################
                #                        -***-                          #
                #          Department of theory and spectroscopy        #
                #                                                       #
                #                      Frank Neese                      #
                #                                                       #
                #     Directorship, Architecture, Infrastructure        #
                #                    SHARK, DRIVERS                     #
                #        Core code/Algorithms in most modules           #
                #                                                       #
                #        Max Planck Institute fuer Kohlenforschung      #
                #                Kaiser Wilhelm Platz 1                 #
                #                 D-45470 Muelheim/Ruhr                 #
                #                      Germany                          #
                #                                                       #
                #                  All rights reserved                  #
                #                        -***-                          #
                #########################################################


                         Program Version 6.0.0  -   RELEASE  -


 With contributions from (in alphabetic order):
   Daniel Aravena         : Magnetic Suceptibility
   Michael Atanasov       : Ab Initio Ligand Field Theory (pilot matlab implementation)
   Alexander A. Auer      : GIAO ZORA, VPT2 properties, NMR spectrum
   Ute Becker             : All parallelization in ORCA, NUMFREQ, NUMCALC
   Giovanni Bistoni       : ED, misc. LED, open-shell LED, HFLD
   Martin Brehm           : Molecular dynamics
   Dmytro Bykov           : pre 5.0 version of the SCF Hessian
   Marcos Casanova-Páez   : Triplet and SCS-CIS(D). UHF-(DLPNO)-IP/EA/STEOM-CCSD. UHF-CVS-IP/STEOM-CCSD
   Vijay G. Chilkuri      : MRCI spin determinant printing, contributions to CSF-ICE
   Pauline Colinet        : FMM embedding
   Dipayan Datta          : RHF DLPNO-CCSD density
   Achintya Kumar Dutta   : EOM-CC, STEOM-CC
   Nicolas Foglia         : Exact transition moments, OPA infrastructure, MCD improvements
   Dmitry Ganyushin       : Spin-Orbit,Spin-Spin,Magnetic field MRCI
   Miquel Garcia          : C-PCM and meta-GGA Hessian, CCSD/C-PCM, Gaussian charge scheme
   Tiago L. C. Gouveia    : GS-ROHF, GS-ROCIS
   Yang Guo               : DLPNO-NEVPT2, F12-NEVPT2, CIM, IAO-localization
   Andreas Hansen         : Spin unrestricted coupled pair/coupled cluster methods
   Ingolf Harden          : AUTO-CI MPn and infrastructure 
   Benjamin Helmich-Paris : MC-RPA, TRAH-(SCF,CASSCF), AVAS, COSX integrals, SCF dyn. polar.
   Lee Huntington         : MR-EOM, pCC
   Robert Izsak           : Overlap fitted RIJCOSX, COSX-SCS-MP3, EOM
   Riya Kayal             : Wick's Theorem for AUTO-CI, AUTO-CI UHF-CCSDT
   Emily Kempfer          : AUTO-CI, RHF CISDT and CCSDT
   Christian Kollmar      : KDIIS, OOCD, Brueckner-CCSD(T), CCSD density, CASPT2, CASPT2-K, improved NEVPT2
   Axel Koslowski         : Symmetry handling
   Simone Kossmann        : Meta GGA functionals, TD-DFT gradient, OOMP2, (MP2 Hessian; deprecated post 5.0)
   Lucas Lang             : DCDCAS
   Marvin Lechner         : AUTO-CI (C++ implementation), FIC-MRCC
   Spencer Leger          : CASSCF response
   Dagmar Lenk            : GEPOL surface, SMD, ORCA-2-JSON
   Dimitrios Liakos       : Extrapolation schemes; Compound Job, initial MDCI parallelization
   Dimitrios Manganas     : Further ROCIS development; embedding schemes. LFT, Crystal Embedding
   Dimitrios Pantazis     : SARC Basis sets
   Anastasios Papadopoulos: AUTO-CI, single reference methods and gradients
   Taras Petrenko         : pre 6.0 DFT Hessian and TD-DFT gradient, (ASA, deprecated), ECA, 1-Electron XAS/XES, NRVS
   Peter Pinski           : DLPNO-MP2, DLPNO-MP2 Gradient
   Christoph Reimann      : Effective Core Potentials
   Marius Retegan         : Local ZFS, SOC
   Christoph Riplinger    : Optimizer, TS searches, QM/MM, DLPNO-CCSD(T), (RO)-DLPNO pert. Triples
   Michael Roemelt        : Original ROCIS implementation
   Masaaki Saitow         : Open-shell DLPNO-CCSD energy and density
   Barbara Sandhoefer     : DKH picture change effects
   Kantharuban Sivalingam : CASSCF convergence/infrastructure, NEVPT2 and variants, FIC-MRCI
   Bernardo de Souza      : ESD, SOC TD-DFT
   Georgi Stoychev        : AutoAux, RI-MP2 NMR, DLPNO-MP2 response, X2C
   Van Anh Tran           : RI-MP2 g-tensors
   Willem Van den Heuvel  : Paramagnetic NMR
   Zikuan Wang            : NOTCH, Electric field optimization 
   Frank Wennmohs         : Technical directorship and infrastructure
   Hang Xu                : AUTO-CI-Response properties 


 We gratefully acknowledge several colleagues who have allowed us to
 interface, adapt or use parts of their codes:
   Stefan Grimme, W. Hujo, H. Kruse, P. Pracht,  : VdW corrections, initial TS optimization,
                  C. Bannwarth, S. Ehlert,         DFT functionals, gCP, sTDA/sTD-DF
                  L. Wittmann, M. Mueller
   Ed Valeev, F. Pavosevic, A. Kumar             : LibInt (2-el integral package), F12 methods
   Garnet Chan, S. Sharma, J. Yang, R. Olivares  : DMRG
   Ulf Ekstrom                                   : XCFun DFT Library
   Mihaly Kallay                                 : mrcc  (arbitrary order and MRCC methods)
   Frank Weinhold                                : gennbo (NPA and NBO analysis)
   Simon Mueller                                 : openCOSMO-RS
   Christopher J. Cramer and Donald G. Truhlar   : smd solvation model
   Lars Goerigk                                  : TD-DFT with DH, B97 family of functionals
   V. Asgeirsson, H. Jonsson                     : NEB implementation
   FAccTs GmbH                                   : IRC, NEB, NEB-TS, DLPNO-Multilevel, CI-OPT
                                                   MM, QMMM, 2- and 3-layer-ONIOM, Crystal-QMMM,
                                                   LR-CPCM, SF, NACMEs, symmetry and pop. for TD-DFT,
                                                   nearIR, NL-DFT gradient (VV10), updates on ESD,
                                                   ML-optimized integration grids, MBIS, APM,
                                                   GOAT, DOCKER, SOLVATOR, interface openCOSMO-RS
   S Lehtola, MJT Oliveira, MAL Marques          : LibXC Library
   Liviu Ungur et al                             : ANISO software


 Your calculation uses the libint2 library for the computation of 2-el integrals
 For citations please refer to: http://libint.valeyev.net

 Your ORCA version has been built with support for libXC version: 6.2.2
 For citations please refer to: https://libxc.gitlab.io

 This ORCA versions uses:
   CBLAS   interface :  Fast vector & matrix operations
   LAPACKE interface :  Fast linear algebra routines
   SCALAPACK package :  Parallel linear algebra routines
   Shared memory     :  Shared parallel matrices
   BLAS/LAPACK       :  OpenBLAS 0.3.27  USE64BITINT DYNAMIC_ARCH NO_AFFINITY SkylakeX SINGLE_THREADED
        Core in use  :  SkylakeX
   Copyright (c) 2011-2014, The OpenBLAS Project


Your calculation utilizes the geometrical counterpoise correction gCP
Please cite in your paper:
H.Kruse, S. Grimme J.Chem.Phys., 136, (2012), 154101 
   

Your calculation utilizes the atom-pairwise dispersion correction
based on EEQ partial charges (D4)


================================================================================

----- Orbital basis set information -----
Your calculation utilizes the basis: def2-mTZVPP
   Stefan Grimme, Andreas Hansen, Sebastian Ehlert, and Jan-Michael Mewes 
   J. Chem. Phys. 154, 064103 (2021). DOI: 10.1063/5.0040021

----- AuxJ basis set information -----
Your calculation utilizes the auxiliary basis: def2/J
   F. Weigend, Phys. Chem. Chem. Phys. 8, 1057 (2006).

================================================================================
                                        WARNINGS
                       Please study these warnings very carefully!
================================================================================

Using LibXC functional ID 497 : Re-regularized SCAN exchange by Furness et al
[ 1]  J. W. Furness, A. D. Kaplan, J. Ning, J. P. Perdew, and J. Sun.,  J. Phys. Chem. Lett. 11, 8208-8215 (2020)
[ 2]  J. W. Furness, A. D. Kaplan, J. Ning, J. P. Perdew, and J. Sun.,  J. Phys. Chem. Lett. 11, 9248-9248 (2020)
Using LibXC functional ID 498 : Re-regularized SCAN correlation by Furness et al
[ 1]  J. W. Furness, A. D. Kaplan, J. Ning, J. P. Perdew, and J. Sun.,  J. Phys. Chem. Lett. 11, 8208-8215 (2020)
[ 2]  J. W. Furness, A. D. Kaplan, J. Ning, J. P. Perdew, and J. Sun.,  J. Phys. Chem. Lett. 11, 9248-9248 (2020)
Using LibXC functional ID 497 : Re-regularized SCAN exchange by Furness et al
[ 1]  J. W. Furness, A. D. Kaplan, J. Ning, J. P. Perdew, and J. Sun.,  J. Phys. Chem. Lett. 11, 8208-8215 (2020)
[ 2]  J. W. Furness, A. D. Kaplan, J. Ning, J. P. Perdew, and J. Sun.,  J. Phys. Chem. Lett. 11, 9248-9248 (2020)
Using LibXC functional ID 498 : Re-regularized SCAN correlation by Furness et al
[ 1]  J. W. Furness, A. D. Kaplan, J. Ning, J. P. Perdew, and J. Sun.,  J. Phys. Chem. Lett. 11, 8208-8215 (2020)
[ 2]  J. W. Furness, A. D. Kaplan, J. Ning, J. P. Perdew, and J. Sun.,  J. Phys. Chem. Lett. 11, 9248-9248 (2020)

================================================================================
                                       INPUT FILE
================================================================================
NAME = sp_gas.inp
|  1> ! r2scan-3c def2/J RI DEFGRID2 scfconv6 printgap
|  2> %output
|  3>     printlevel normal
|  4> end
|  5> * xyz 0 1
|  6> C -2.3600655411 0.2686926672 1.0708892076
|  7> C -1.8055247686 0.5863592303 -0.3210419648
|  8> C -0.5320256509 -0.1878129669 -0.5400761457
|  9> O -0.4494010718 -1.2338164293 -1.1524577882
| 10> O 0.5032345545 0.3923903171 0.0475540654
| 11> C 1.7790024883 -0.2650820178 -0.0348016328
| 12> C 2.7525747932 0.4738461771 0.8626838097
| 13> H -3.2895909467 0.8078924916 1.2260442956
| 14> H -2.5537837172 -0.7971645373 1.165939559
| 15> H -1.6479062594 0.5658285948 1.8360016549
| 16> H -1.5861407127 1.6505478461 -0.3955937327
| 17> H -2.5219709997 0.2944854218 -1.0878603211
| 18> H 1.6516090194 -1.3089739773 0.2702574619
| 19> H 2.1035721143 -0.2533653543 -1.0804702434
| 20> H 2.832995238 1.5101213414 0.5483309163
| 21> H 2.4075679323 0.445676285 1.8920066179
| 22> H 3.727755041 0.0025427462 0.7990149382
| 23> *
| 24> 
| 25>                          ****END OF INPUT****
================================================================================

                       ****************************
                       * Single Point Calculation *
                       ****************************

---------------------------------
CARTESIAN COORDINATES (ANGSTROEM)
---------------------------------
  C     -2.360066    0.268693    1.070889
  C     -1.805525    0.586359   -0.321042
  C     -0.532026   -0.187813   -0.540076
  O     -0.449401   -1.233816   -1.152458
  O      0.503235    0.392390    0.047554
  C      1.779002   -0.265082   -0.034802
  C      2.752575    0.473846    0.862684
  H     -3.289591    0.807892    1.226044
  H     -2.553784   -0.797165    1.165940
  H     -1.647906    0.565829    1.836002
  H     -1.586141    1.650548   -0.395594
  H     -2.521971    0.294485   -1.087860
  H      1.651609   -1.308974    0.270257
  H      2.103572   -0.253365   -1.080470
  H      2.832995    1.510121    0.548331
  H      2.407568    0.445676    1.892007
  H      3.727755    0.002543    0.799015

----------------------------
CARTESIAN COORDINATES (A.U.)
----------------------------
  NO LB      ZA    FRAG     MASS         X           Y           Z
   0 C     6.0000    0    12.011   -4.459878    0.507756    2.023687
   1 C     6.0000    0    12.011   -3.411947    1.108058   -0.606681
   2 C     6.0000    0    12.011   -1.005383   -0.354915   -1.020596
   3 O     8.0000    0    15.999   -0.849245   -2.331575   -2.177830
   4 O     8.0000    0    15.999    0.950975    0.741510    0.089864
   5 C     6.0000    0    12.011    3.361827   -0.500932   -0.065766
   6 C     6.0000    0    12.011    5.201613    0.895440    1.630236
   7 H     1.0000    0     1.008   -6.216426    1.526696    2.316888
   8 H     1.0000    0     1.008   -4.825952   -1.506423    2.203306
   9 H     1.0000    0     1.008   -3.114092    1.069261    3.469540
  10 H     1.0000    0     1.008   -2.997372    3.119083   -0.747564
  11 H     1.0000    0     1.008   -4.765835    0.556497   -2.055758
  12 H     1.0000    0     1.008    3.121089   -2.473602    0.510713
  13 H     1.0000    0     1.008    3.975175   -0.478791   -2.041793
  14 H     1.0000    0     1.008    5.353585    2.853716    1.036195
  15 H     1.0000    0     1.008    4.549644    0.842206    3.575374
  16 H     1.0000    0     1.008    7.044436    0.004805    1.509919

--------------------------------
INTERNAL COORDINATES (ANGSTROEM)
--------------------------------
 C      0   0   0     0.000000000000     0.00000000     0.00000000
 C      1   0   0     1.531633083469     0.00000000     0.00000000
 C      2   1   0     1.506359374818   109.36841616     0.00000000
 O      3   2   1     1.214891493301   124.97938345    98.48201918
 O      3   2   1     1.324276711510   111.79060990   280.02308952
 C      5   3   2     1.437579964071   117.90226019   177.66211652
 C      6   5   3     1.516356827922   108.24041358   187.79485087
 H      1   2   3     1.085738012423   109.68411303   181.20117168
 H      1   2   3     1.087480060248   110.31658837   300.99216808
 H      1   2   3     1.086672746965   110.23534903    61.24350603
 H      2   1   3     1.089121086050   109.74252421   240.74425732
 H      2   1   3     1.089263932068   110.24618796   119.12121121
 H      6   5   3     1.094988844823   108.46938069   309.50736122
 H      6   5   3     1.094945462349   108.23262447    66.56993625
 H      7   6   5     1.085887381673   109.95309112   301.08700381
 H      7   6   5     1.085969023670   110.14400294    61.00870906
 H      7   6   5     1.084968739124   109.30904086   181.06585199

---------------------------
INTERNAL COORDINATES (A.U.)
---------------------------
 C      0   0   0     0.000000000000     0.00000000     0.00000000
 C      1   0   0     2.894367065409     0.00000000     0.00000000
 C      2   1   0     2.846606677671   109.36841616     0.00000000
 O      3   2   1     2.295812204770   124.97938345    98.48201918
 O      3   2   1     2.502520310283   111.79060990   280.02308952
 C      5   3   2     2.716632427706   117.90226019   177.66211652
 C      6   5   3     2.865499126074   108.24041358   187.79485087
 H      1   2   3     2.051747496668   109.68411303   181.20117168
 H      1   2   3     2.055039489969   110.31658837   300.99216808
 H      1   2   3     2.053513888959   110.23534903    61.24350603
 H      2   1   3     2.058140579313   109.74252421   240.74425732
 H      2   1   3     2.058410519167   110.24618796   119.12121121
 H      6   5   3     2.069229036414   108.46938069   309.50736122
 H      6   5   3     2.069147055420   108.23262447    66.56993625
 H      7   6   5     2.052029763642   109.95309112   301.08700381
 H      7   6   5     2.052184044657   110.14400294    61.00870906
 H      7   6   5     2.050293780809   109.30904086   181.06585199

---------------------
BASIS SET INFORMATION
---------------------
There are 3 groups of distinct atoms

 Group   1 Type C   : 11s6p1d contracted to 5s3p1d pattern {62111/411/1}
 Group   2 Type O   : 11s6p2d contracted to 5s3p2d pattern {62111/411/11}
 Group   3 Type H   : 4s1p contracted to 2s1p pattern {31/1}

Atom   0C    basis set group =>   1
Atom   1C    basis set group =>   1
Atom   2C    basis set group =>   1
Atom   3O    basis set group =>   2
Atom   4O    basis set group =>   2
Atom   5C    basis set group =>   1
Atom   6C    basis set group =>   1
Atom   7H    basis set group =>   3
Atom   8H    basis set group =>   3
Atom   9H    basis set group =>   3
Atom  10H    basis set group =>   3
Atom  11H    basis set group =>   3
Atom  12H    basis set group =>   3
Atom  13H    basis set group =>   3
Atom  14H    basis set group =>   3
Atom  15H    basis set group =>   3
Atom  16H    basis set group =>   3
---------------------------------
AUXILIARY/J BASIS SET INFORMATION
---------------------------------
There are 3 groups of distinct atoms

 Group   1 Type C   : 12s5p4d2f1g contracted to 6s4p3d1f1g pattern {711111/2111/211/2/1}
 Group   2 Type O   : 12s5p4d2f1g contracted to 6s4p3d1f1g pattern {711111/2111/211/2/1}
 Group   3 Type H   : 5s2p1d contracted to 3s1p1d pattern {311/2/1}

Atom   0C    basis set group =>   1
Atom   1C    basis set group =>   1
Atom   2C    basis set group =>   1
Atom   3O    basis set group =>   2
Atom   4O    basis set group =>   2
Atom   5C    basis set group =>   1
Atom   6C    basis set group =>   1
Atom   7H    basis set group =>   3
Atom   8H    basis set group =>   3
Atom   9H    basis set group =>   3
Atom  10H    basis set group =>   3
Atom  11H    basis set group =>   3
Atom  12H    basis set group =>   3
Atom  13H    basis set group =>   3
Atom  14H    basis set group =>   3
Atom  15H    basis set group =>   3
Atom  16H    basis set group =>   3

Checking for AutoStart:
The File: sp_gas.gbw exists
Trying to determine its content:
     ... Fine, the file contains calculation information
     ... Fine, the calculation information was read
     ... Fine, the file contains a basis set
     ... Fine, the basis set was read
     ... Fine, the file contains a geometry
     ... Fine, the geometry was read
     ... Fine, the file contains a set of orbitals
     ... Fine, the orbitals can be read
     => possible old guess file was deleted
     => GBW file was renamed to GES file
     => GES file is set as startup file
     => Guess is set to MORead
     ... now leaving AutoStart

------------------------------------------------------------------------------
                             ORCA STARTUP CALCULATIONS
                           -- RI-GTO INTEGRALS CHOSEN --
------------------------------------------------------------------------------
------------------------------------------------------------------------------
                   ___                                                        
                  /   \      - P O W E R E D   B Y -                         
                 /     \                                                     
                 |  |  |   _    _      __       _____    __    __             
                 |  |  |  | |  | |    /  \     |  _  \  |  |  /  |          
                  \  \/   | |  | |   /    \    | | | |  |  | /  /          
                 / \  \   | |__| |  /  /\  \   | |_| |  |  |/  /          
                |  |  |   |  __  | /  /__\  \  |    /   |      \           
                |  |  |   | |  | | |   __   |  |    \   |  |\   \          
                \     /   | |  | | |  |  |  |  | |\  \  |  | \   \       
                 \___/    |_|  |_| |__|  |__|  |_| \__\ |__|  \__/        
                                                                              
                      - O R C A' S   B I G   F R I E N D -                    
                                      &                                       
                       - I N T E G R A L  F E E D E R -                       
                                                                              
 v1 FN, 2020, v2 2021, v3 2022-2024                                           
------------------------------------------------------------------------------


----------------------
SHARK INTEGRAL PACKAGE
----------------------

Number of atoms                             ...     17
Number of basis functions                   ...    193
Number of shells                            ...     95
Maximum angular momentum                    ...      2
Integral batch strategy                     ... SHARK/LIBINT Hybrid
RI-J (if used) integral strategy            ... SPLIT-RIJ (Revised 2003 algorithm where possible)
Printlevel                                  ...      1
Contraction scheme used                     ... SEGMENTED contraction
Prescreening option                         ... SCHWARTZ
   Thresh                                   ... 1.000e-10
   Tcut                                     ... 1.000e-11
   Tpresel                                  ... 1.000e-11 
Coulomb Range Separation                    ... NOT USED
Exchange Range Separation                   ... NOT USED
Multipole approximations                    ... NOT USED
Finite Nucleus Model                        ... NOT USED
CABS basis                                  ... NOT available
Auxiliary Coulomb fitting basis             ... AVAILABLE
   # of basis functions in Aux-J            ...    453
   # of shells in Aux-J                     ...    155
   Maximum angular momentum in Aux-J        ...      4
Auxiliary J/K fitting basis                 ... NOT available
Auxiliary Correlation fitting basis         ... NOT available
Auxiliary 'external' fitting basis          ... NOT available

Checking pre-screening integrals            ... done (  0.0 sec) Dimension = 95
Check shell pair data                       ... done (  0.0 sec)
Shell pair information
Shell pair cut-off parameter TPreSel        ...   1.0e-11
Total number of shell pairs                 ...      4560
Shell pairs after pre-screening             ...      4054
Total number of primitive shell pairs       ...     16115
Primitive shell pairs kept                  ...     10325
          la=0 lb=0:   1351 shell pairs
          la=1 lb=0:   1515 shell pairs
          la=1 lb=1:    444 shell pairs
          la=2 lb=0:    449 shell pairs
          la=2 lb=1:    251 shell pairs
          la=2 lb=2:     44 shell pairs

Calculating one electron integrals          ... done (  0.0 sec)
Calculating RI/J V-Matrix + Cholesky decomp.... done (  0.1 sec)
Calculating Nuclear repulsion               ... done (  0.0 sec) ENN=    315.791901790562 Eh

Diagonalization of the overlap matrix:
Smallest eigenvalue                        ... 2.295e-04
Time for diagonalization                   ...    0.003 sec
Threshold for overlap eigenvalues          ... 1.000e-07
Number of eigenvalues below threshold      ... 0
Time for construction of square roots      ...    0.015 sec
Total time needed                          ...    0.026 sec

-------------------
DFT GRID GENERATION
-------------------

General Integration Accuracy     IntAcc      ... 4.388
Radial Grid Type                 RadialGrid  ... OptM3 with GC (2021)
Angular Grid (max. ang.)         AngularGrid ... 4 (Lebedev-302)
Angular grid pruning method      GridPruning ... 4 (adaptive)
Weight generation scheme         WeightScheme... mBecke (2022)
Basis function cutoff            BFCut       ... 1.0000e-10
Integration weight cutoff        WCut        ... 1.0000e-14
Partially contracted basis set               ... off
Rotationally invariant grid construction     ... off
Angular grids for H and He will be reduced by one unit
Diffuse basis detected: some atoms will have their outermost
                        angular grid increased by 1.

Total number of grid points                  ...    75153
Total number of batches                      ...     1184
Average number of points per batch           ...       63
Average number of grid points per atom       ...     4421
Initializing property integral containers    ... done (  0.0 sec)

SHARK setup successfully completed in   1.0 seconds

Maximum memory used throughout the entire STARTUP-calculation: 33.6 MB
-------------------------------------------------------------------------------
                                 ORCA GUESS
                   Start orbitals & Density for SCF / CASSCF
-------------------------------------------------------------------------------

------------
SCF SETTINGS
------------
Hamiltonian:
 Density Functional     Method          .... DFT(GTOs)
  Functional kind                       .... Exchange
  Functional name                       .... Re-regularized SCAN exchange by Furness et al
  Functional family                     .... MGGA
  Functional refs                              
    [ 0] J. W. Furness, A. D. Kaplan, J. Ning, J. P. Perdew, and J. Sun.,  J. Phys. Chem. Lett. 11, 8208-8215 (2020), doi: 10.1021/acs.jpclett.0c02405
    [ 1] J. W. Furness, A. D. Kaplan, J. Ning, J. P. Perdew, and J. Sun.,  J. Phys. Chem. Lett. 11, 9248-9248 (2020), doi: 10.1021/acs.jpclett.0c03077
  Functional external parameters        .... 6
    Parameter  0 _c1        =  6.670000e-01 : c1 parameter        
    Parameter  1 _c2        =  8.000000e-01 : c2 parameter        
    Parameter  2 _d         =  1.240000e+00 : d parameter         
    Parameter  3 _k1        =  6.500000e-02 : k1 parameter        
    Parameter  4 _eta       =  1.000000e-03 : eta parameter       
    Parameter  5 _dp2       =  3.610000e-01 : dp2 parameter       
  Functional kind                       .... Correlation
  Functional name                       .... Re-regularized SCAN correlation by Furness et al
  Functional family                     .... MGGA
  Functional refs                              
    [ 0] J. W. Furness, A. D. Kaplan, J. Ning, J. P. Perdew, and J. Sun.,  J. Phys. Chem. Lett. 11, 8208-8215 (2020), doi: 10.1021/acs.jpclett.0c02405
    [ 1] J. W. Furness, A. D. Kaplan, J. Ning, J. P. Perdew, and J. Sun.,  J. Phys. Chem. Lett. 11, 9248-9248 (2020), doi: 10.1021/acs.jpclett.0c03077
  Functional external parameters        .... 1
    Parameter  0 _eta       =  1.000000e-03 : Regularization parameter
 Gradients option       PostSCFGGA      .... off
 RI-approximation to the Coulomb term is turned on
   Number of AuxJ basis functions       .... 453


General Settings:
 Integral files         IntName         .... sp_gas
 Hartree-Fock type      HFTyp           .... RHF
 Total Charge           Charge          ....    0
 Multiplicity           Mult            ....    1
 Number of Electrons    NEL             ....   56
 Basis Dimension        Dim             ....  193
 Nuclear Repulsion      ENuc            ....    315.7919017906 Eh

Convergence Acceleration:
 AO-DIIS                CNVDIIS         .... on
   Start iteration      DIISMaxIt       ....    12
   Startup error        DIISStart       ....  0.200000
   # of expansion vecs  DIISMaxEq       ....     5
   Bias factor          DIISBfac        ....   1.050
   Max. coefficient     DIISMaxC        ....  10.000
 MO-DIIS                CNVKDIIS        .... off
 Trust-Rad. Augm. Hess. CNVTRAH         .... auto
   Auto Start mean grad. ratio tolernc. ....  1.125000
   Auto Start start iteration           ....     1
   Auto Start num. interpolation iter.  ....    10
   Max. Number of Micro iterations      ....    24
   Max. Number of Macro iterations      .... Maxiter - #DIIS iter
   Number of Davidson start vectors     ....     2
   Converg. threshold    (grad. norm)   ....   3.330e-04
   Grad. Scal. Fac. for Micro threshold ....   0.100
   Minimum threshold for Micro iter.    ....   1.000e-02
   NR start threshold (gradient norm)   ....   1.000e-04
   Initial trust radius                 ....   0.400
   Minimum AH scaling param. (alpha)    ....   1.000
   Maximum AH scaling param. (alpha)    .... 1000.000
   Quad. conv. algorithm                .... NR
   White noise on init. David. guess    .... on
   Maximum white noise                  ....   0.010
   Pseudo random numbers                .... off
   Inactive MOs                         .... canonical
   Orbital update algorithm             .... Taylor
   Preconditioner                       .... Diag
   Full preconditioner red. dimension   ....   250
   COSX micro iterations for RIJONX calc.... off
 SOSCF                  CNVSOSCF        .... on
   Start iteration      SOSCFMaxIt      ....   150
   Startup grad/error   SOSCFStart      ....  0.003300
   Hessian update       SOSCFHessUp     .... L-BFGS
 Level Shifting         CNVShift        .... on
   Level shift para.    LevelShift      ....    0.2500
   Turn off err/grad.   ShiftErr        ....    0.0010
 Zerner damping         CNVZerner       .... off
 Static damping         CNVDamp         .... on
   Fraction old density DampFac         ....    0.7000
   Max. Damping (<1)    DampMax         ....    0.9800
   Min. Damping (>=0)   DampMin         ....    0.0000
   Turn off err/grad.   DampErr         ....    0.1000

SCF Procedure:
 Maximum # iterations   MaxIter         ....   125
 SCF integral mode      SCFMode         .... Direct
   Integral package                     .... SHARK and LIBINT hybrid scheme
 Reset frequency        DirectResetFreq ....    20
 Integral Threshold     Thresh          ....  1.000e-10 Eh
 Primitive CutOff       TCut            ....  1.000e-11 Eh

Convergence Tolerance:
 Convergence Check Mode ConvCheckMode   .... Total+1el-Energy
 Convergence forced     ConvForced      .... 0
 Energy Change          TolE            ....  1.000e-06 Eh
 1-El. energy change                    ....  1.000e-03 Eh
 Orbital Gradient       TolG            ....  3.330e-04
 Orbital Rotation angle TolX            ....  3.330e-04
 DIIS Error             TolErr          ....  1.000e-06

---------------------
INITIAL GUESS: MOREAD
---------------------
Guess MOs are being read from file: sp_gas.ges
Input Geometry matches current geometry (good)
Atom 0: N(Shells)= 9 and 6 - projection required
Input basis set needs projection
NBasis(read)= 118
NBasis(calc)= 193
Basis set overlap was calculated
Using GuessMode=FMatrix for the initial guess
C*T matrix was formed
Effective Fockian was calculated
Effective Fockian was diagonalized
Initial density was built
                      ------------------
                      INITIAL GUESS DONE (   0.0 sec)
                      ------------------
             **** ENERGY FILE WAS UPDATED (sp_gas.en.tmp) ****
Finished Guess after   0.2 sec
Maximum memory used throughout the entire GUESS-calculation: 12.9 MB

-------------------------------------------------------------------------------------------
                                      ORCA LEAN-SCF
                              memory conserving SCF solver
-------------------------------------------------------------------------------------------

----------------------------------------D-I-I-S--------------------------------------------
Iteration    Energy (Eh)           Delta-E    RMSDP     MaxDP     DIISErr   Damp  Time(sec)
-------------------------------------------------------------------------------------------
               ***  Starting incremental Fock matrix formation  ***
    1    -346.7676215396385828     0.00e+00  3.56e-03  1.28e-01  6.26e-01  0.700   2.1
    2    -346.8195583277081937    -5.19e-02  2.94e-03  9.44e-02  4.40e-01  0.700   2.1
    3    -346.8562697848796574    -3.67e-02  2.16e-03  6.68e-02  3.09e-01  0.700   2.0
    4    -346.8820427886140010    -2.58e-02  1.55e-03  4.71e-02  2.16e-01  0.700   1.9
                               ***Turning on AO-DIIS***
    5    -346.9001196529156346    -1.81e-02  1.12e-03  3.39e-02  1.51e-01  0.700   1.9
    6    -346.9127901540588823    -1.27e-02  7.99e-04  2.40e-02  1.06e-01  0.700   1.9
    7    -346.9216718619299513    -8.88e-03  5.64e-04  1.69e-02  7.41e-02  0.700   1.9
    8    -346.9278943210716193    -6.22e-03  1.32e-03  3.94e-02  5.19e-02  0.000   1.9
                              *** Initializing SOSCF ***
---------------------------------------S-O-S-C-F--------------------------------------
Iteration    Energy (Eh)           Delta-E    RMSDP     MaxDP     MaxGrad    Time(sec)
--------------------------------------------------------------------------------------
    9    -346.9424316094804794    -1.45e-02  8.13e-06  2.82e-04  8.08e-05     2.0
                  *** Gradient check signals convergence ***

               *****************************************************
               *                     SUCCESS                       *
               *           SCF CONVERGED AFTER   9 CYCLES          *
               *****************************************************

             **** ENERGY FILE WAS UPDATED (sp_gas.en.tmp) ****

----------------
TOTAL SCF ENERGY
----------------

Total Energy       :       -346.94243160948048 Eh           -9440.78352 eV

Components:
Nuclear Repulsion  :        315.79190179056201 Eh            8593.13451 eV
Electronic Energy  :       -662.73433340004249 Eh          -18033.91804 eV
One Electron Energy:      -1096.86124227100936 Eh          -29847.11180 eV
Two Electron Energy:        434.12690887096687 Eh           11813.19376 eV

Virial components:
Potential Energy   :       -692.47256726943442 Eh          -18843.13652 eV
Kinetic Energy     :        345.53013565995400 Eh            9402.35300 eV
Virial Ratio       :          2.00408733075287

DFT components:
N(Alpha)           :       27.999993178225 electrons
N(Beta)            :       27.999993178225 electrons
N(Total)           :       55.999986356450 electrons
E(X)               :      -46.157687746884 Eh       
E(C)               :       -1.786902434761 Eh       
E(XC)              :      -47.944590181645 Eh       

---------------
SCF CONVERGENCE
---------------

  Last Energy change         ...    1.4537e-02  Tolerance :   1.0000e-06
  Last MAX-Density change    ...    2.8209e-04  Tolerance :   1.0000e-05
  Last RMS-Density change    ...    8.1286e-06  Tolerance :   1.0000e-06
  Last DIIS Error            ...    8.0814e-05  Tolerance :   1.0000e-06
  Last Orbital Gradient      ...    8.0814e-05  Tolerance :   3.3300e-04
  Last Orbital Rotation      ...    8.0814e-05  Tolerance :   3.3300e-04


----------------
ORBITAL ENERGIES
----------------

  NO   OCC          E(Eh)            E(eV) 
   0   2.0000     -18.996288      -516.9153 
   1   2.0000     -18.926161      -515.0070 
   2   2.0000     -10.150025      -276.1962 
   3   2.0000     -10.091792      -274.6116 
   4   2.0000     -10.043121      -273.2872 
   5   2.0000     -10.032405      -272.9956 
   6   2.0000     -10.031642      -272.9749 
   7   2.0000      -1.071824       -29.1658 
   8   2.0000      -0.972883       -26.4735 
   9   2.0000      -0.767175       -20.8759 
  10   2.0000      -0.733509       -19.9598 
  11   2.0000      -0.638183       -17.3658 
  12   2.0000      -0.594590       -16.1796 
  13   2.0000      -0.534565       -14.5462 
  14   2.0000      -0.468303       -12.7432 
  15   2.0000      -0.457990       -12.4625 
  16   2.0000      -0.440940       -11.9986 
  17   2.0000      -0.410817       -11.1789 
  18   2.0000      -0.402452       -10.9513 
  19   2.0000      -0.378748       -10.3063 
  20   2.0000      -0.372989       -10.1495 
  21   2.0000      -0.351118        -9.5544 
  22   2.0000      -0.344132        -9.3643 
  23   2.0000      -0.327114        -8.9012 
  24   2.0000      -0.321738        -8.7549 
  25   2.0000      -0.312986        -8.5168 
  26   2.0000      -0.270836        -7.3698 
  27   2.0000      -0.231282        -6.2935 
  28   0.0000      -0.013875        -0.3775 
  29   0.0000       0.072365         1.9691 
  30   0.0000       0.095583         2.6009 
  31   0.0000       0.119202         3.2436 
  32   0.0000       0.123517         3.3611 
  33   0.0000       0.132028         3.5927 
  34   0.0000       0.142259         3.8711 
  35   0.0000       0.154915         4.2155 
  36   0.0000       0.161090         4.3835 
  37   0.0000       0.168034         4.5724 
  38   0.0000       0.168885         4.5956 
*Only the first 10 virtual orbitals were printed.

                    ********************************
                    * MULLIKEN POPULATION ANALYSIS *
                    ********************************

-----------------------
MULLIKEN ATOMIC CHARGES
-----------------------
   0 C :   -0.471806
   1 C :   -0.294975
   2 C :    0.400182
   3 O :   -0.423132
   4 O :   -0.169288
   5 C :   -0.148396
   6 C :   -0.441181
   7 H :    0.153354
   8 H :    0.157828
   9 H :    0.157134
  10 H :    0.152162
  11 H :    0.163126
  12 H :    0.160921
  13 H :    0.152955
  14 H :    0.152166
  15 H :    0.151630
  16 H :    0.147320
Sum of atomic charges:    0.0000000

--------------------------------
MULLIKEN REDUCED ORBITAL CHARGES
--------------------------------
  0 C s       :     3.326402  s :     3.326402
      pz      :     0.943483  p :     3.118553
      px      :     1.081728
      py      :     1.093343
      dz2     :     0.007198  d :     0.026850
      dxz     :     0.007152
      dyz     :     0.003355
      dx2y2   :     0.005107
      dxy     :     0.004039

  1 C s       :     3.226503  s :     3.226503
      pz      :     0.999297  p :     3.033632
      px      :     0.989242
      py      :     1.045094
      dz2     :     0.008487  d :     0.034840
      dxz     :     0.008192
      dyz     :     0.004251
      dx2y2   :     0.006743
      dxy     :     0.007167

  2 C s       :     3.136111  s :     3.136111
      pz      :     0.762877  p :     2.338757
      px      :     0.807596
      py      :     0.768285
      dz2     :     0.019527  d :     0.124950
      dxz     :     0.022064
      dyz     :     0.017432
      dx2y2   :     0.024613
      dxy     :     0.041314

  3 O s       :     3.840417  s :     3.840417
      pz      :     1.419162  p :     4.561934
      px      :     1.802133
      py      :     1.340639
      dz2     :     0.005302  d :     0.020782
      dxz     :     0.000505
      dyz     :     0.008159
      dx2y2   :     0.006765
      dxy     :     0.000050

  4 O s       :     3.700668  s :     3.700668
      pz      :     1.681600  p :     4.434742
      px      :     1.103270
      py      :     1.649872
      dz2     :     0.004396  d :     0.033878
      dxz     :     0.009509
      dyz     :     0.006185
      dx2y2   :    -0.000169
      dxy     :     0.013957

  5 C s       :     3.282124  s :     3.282124
      pz      :     1.064260  p :     2.812369
      px      :     0.750588
      py      :     0.997521
      dz2     :     0.011736  d :     0.053902
      dxz     :     0.010972
      dyz     :     0.004764
      dx2y2   :     0.014013
      dxy     :     0.012418

  6 C s       :     3.309780  s :     3.309780
      pz      :     1.033691  p :     3.105593
      px      :     1.020686
      py      :     1.051216
      dz2     :     0.007660  d :     0.025807
      dxz     :     0.004501
      dyz     :     0.003148
      dx2y2   :     0.005485
      dxy     :     0.005014

  7 H s       :     0.828300  s :     0.828300
      pz      :     0.003800  p :     0.018346
      px      :     0.009093
      py      :     0.005453

  8 H s       :     0.824031  s :     0.824031
      pz      :     0.003560  p :     0.018140
      px      :     0.003826
      py      :     0.010754

  9 H s       :     0.824679  s :     0.824679
      pz      :     0.007257  p :     0.018188
      px      :     0.006770
      py      :     0.004161

 10 H s       :     0.829820  s :     0.829820
      pz      :     0.003509  p :     0.018018
      px      :     0.003573
      py      :     0.010937

 11 H s       :     0.819162  s :     0.819162
      pz      :     0.007380  p :     0.017712
      px      :     0.006581
      py      :     0.003751

 12 H s       :     0.821513  s :     0.821513
      pz      :     0.003888  p :     0.017566
      px      :     0.002497
      py      :     0.011180

 13 H s       :     0.829649  s :     0.829649
      pz      :     0.011048  p :     0.017396
      px      :     0.003186
      py      :     0.003162

 14 H s       :     0.829580  s :     0.829580
      pz      :     0.004127  p :     0.018254
      px      :     0.003610
      py      :     0.010517

 15 H s       :     0.830125  s :     0.830125
      pz      :     0.010384  p :     0.018245
      px      :     0.004253
      py      :     0.003608

 16 H s       :     0.834250  s :     0.834250
      pz      :     0.003669  p :     0.018430
      px      :     0.009827
      py      :     0.004934


------------------------
MULLIKEN OVERLAP CHARGES
------------------------
B(  0-C ,  1-C ) :   0.5024 B(  0-C ,  2-C ) :  -0.1471 B(  0-C ,  7-H ) :   0.8131 
B(  0-C ,  8-H ) :   0.8373 B(  0-C ,  9-H ) :   0.8492 B(  0-C , 10-H ) :  -0.0534 
B(  1-C ,  2-C ) :   0.4930 B(  1-C ,  3-O ) :  -0.0944 B(  1-C ,  4-O ) :  -0.0534 
B(  1-C ,  7-H ) :  -0.0975 B(  1-C ,  8-H ) :  -0.0738 B(  1-C ,  9-H ) :  -0.0687 
B(  1-C , 10-H ) :   0.8455 B(  1-C , 11-H ) :   0.8712 B(  2-C ,  3-O ) :   0.9629 
B(  2-C ,  4-O ) :   0.3379 B(  2-C ,  5-C ) :  -0.1866 B(  2-C , 10-H ) :  -0.0999 
B(  2-C , 11-H ) :  -0.1165 B(  3-O ,  4-O ) :  -0.2374 B(  4-O ,  5-C ) :   0.2910 
B(  4-O ,  6-C ) :  -0.1001 B(  4-O , 12-H ) :  -0.0703 B(  4-O , 13-H ) :  -0.0751 
B(  5-C ,  6-C ) :   0.4436 B(  5-C , 12-H ) :   0.8300 B(  5-C , 13-H ) :   0.8078 
B(  5-C , 14-H ) :  -0.0540 B(  5-C , 15-H ) :  -0.0678 B(  5-C , 16-H ) :  -0.0755 
B(  6-C , 12-H ) :  -0.0618 B(  6-C , 13-H ) :  -0.0531 B(  6-C , 14-H ) :   0.8171 
B(  6-C , 15-H ) :   0.8302 B(  6-C , 16-H ) :   0.8190 B( 12-H , 13-H ) :  -0.0636 



                     *******************************
                     * LOEWDIN POPULATION ANALYSIS *
                     *******************************

----------------------
LOEWDIN ATOMIC CHARGES
----------------------
   0 C :   -0.392727
   1 C :   -0.236993
   2 C :    0.352655
   3 O :   -0.426157
   4 O :   -0.599085
   5 C :    0.034113
   6 C :   -0.386825
   7 H :    0.152950
   8 H :    0.158910
   9 H :    0.157921
  10 H :    0.173749
  11 H :    0.174510
  12 H :    0.181633
  13 H :    0.177503
  14 H :    0.159426
  15 H :    0.158772
  16 H :    0.159646

-------------------------------
LOEWDIN REDUCED ORBITAL CHARGES
-------------------------------
  0 C s       :     2.969602  s :     2.969602
      pz      :     1.066543  p :     3.360266
      px      :     1.136076
      py      :     1.157647
      dz2     :     0.016805  d :     0.062859
      dxz     :     0.016657
      dyz     :     0.006908
      dx2y2   :     0.012550
      dxy     :     0.009939

  1 C s       :     2.927834  s :     2.927834
      pz      :     1.088797  p :     3.235347
      px      :     1.044113
      py      :     1.102437
      dz2     :     0.017709  d :     0.073813
      dxz     :     0.018501
      dyz     :     0.007575
      dx2y2   :     0.015659
      dxy     :     0.014369

  2 C s       :     2.735657  s :     2.735657
      pz      :     0.784687  p :     2.639434
      px      :     0.930427
      py      :     0.924320
      dz2     :     0.037531  d :     0.272254
      dxz     :     0.047137
      dyz     :     0.043599
      dx2y2   :     0.053348
      dxy     :     0.090639

  3 O s       :     3.550897  s :     3.550897
      pz      :     1.450438  p :     4.662927
      px      :     1.744119
      py      :     1.468371
      dz2     :     0.031177  d :     0.212333
      dxz     :     0.024107
      dyz     :     0.057216
      dx2y2   :     0.044349
      dxy     :     0.055483

  4 O s       :     3.460254  s :     3.460254
      pz      :     1.676796  p :     4.660713
      px      :     1.327092
      py      :     1.656825
      dz2     :     0.064892  d :     0.478119
      dxz     :     0.115023
      dyz     :     0.044062
      dx2y2   :     0.137818
      dxy     :     0.116324

  5 C s       :     2.868322  s :     2.868322
      pz      :     1.086298  p :     2.977022
      px      :     0.856989
      py      :     1.033736
      dz2     :     0.026042  d :     0.120543
      dxz     :     0.025345
      dyz     :     0.009565
      dx2y2   :     0.031644
      dxy     :     0.027948

  6 C s       :     2.971044  s :     2.971044
      pz      :     1.123026  p :     3.354996
      px      :     1.096999
      py      :     1.134971
      dz2     :     0.018442  d :     0.060785
      dxz     :     0.009840
      dyz     :     0.007260
      dx2y2   :     0.013464
      dxy     :     0.011779

  7 H s       :     0.803316  s :     0.803316
      pz      :     0.008338  p :     0.043733
      px      :     0.022466
      py      :     0.012929

  8 H s       :     0.797447  s :     0.797447
      pz      :     0.007798  p :     0.043643
      px      :     0.008550
      py      :     0.027295

  9 H s       :     0.798305  s :     0.798305
      pz      :     0.017630  p :     0.043775
      px      :     0.016594
      py      :     0.009550

 10 H s       :     0.782259  s :     0.782259
      pz      :     0.008339  p :     0.043992
      px      :     0.008454
      py      :     0.027199

 11 H s       :     0.782292  s :     0.782292
      pz      :     0.018206  p :     0.043198
      px      :     0.016080
      py      :     0.008911

 12 H s       :     0.776977  s :     0.776977
      pz      :     0.008879  p :     0.041390
      px      :     0.006265
      py      :     0.026246

 13 H s       :     0.781813  s :     0.781813
      pz      :     0.026505  p :     0.040684
      px      :     0.007068
      py      :     0.007112

 14 H s       :     0.797188  s :     0.797188
      pz      :     0.009501  p :     0.043386
      px      :     0.007713
      py      :     0.026172

 15 H s       :     0.797864  s :     0.797864
      pz      :     0.025663  p :     0.043364
      px      :     0.009757
      py      :     0.007944

 16 H s       :     0.796527  s :     0.796527
      pz      :     0.008172  p :     0.043827
      px      :     0.023950
      py      :     0.011704


---------------------------------
LOEWDIN BOND ORDERS (THRESH 0.050000)
---------------------------------
B(  0-C ,  1-C ) :   1.1149 B(  0-C ,  2-C ) :   0.0792 B(  0-C ,  7-H ) :   0.9272 
B(  0-C ,  8-H ) :   0.9254 B(  0-C ,  9-H ) :   0.9251 B(  1-C ,  2-C ) :   0.9281 
B(  1-C ,  3-O ) :   0.1814 B(  1-C ,  4-O ) :   0.1800 B(  1-C , 10-H ) :   0.8717 
B(  1-C , 11-H ) :   0.8772 B(  2-C ,  3-O ) :   2.1723 B(  2-C ,  4-O ) :   1.4553 
B(  2-C ,  5-C ) :   0.0889 B(  3-O ,  4-O ) :   0.4638 B(  3-O ,  5-C ) :   0.0714 
B(  4-O ,  5-C ) :   1.2912 B(  4-O ,  6-C ) :   0.1680 B(  4-O , 12-H ) :   0.0930 
B(  4-O , 13-H ) :   0.0944 B(  5-C ,  6-C ) :   1.0925 B(  5-C , 12-H ) :   0.8224 
B(  5-C , 13-H ) :   0.8272 B(  6-C , 14-H ) :   0.9218 B(  6-C , 15-H ) :   0.9231 
B(  6-C , 16-H ) :   0.9193 

------------------------------------------
LOEWDIN REDUCED ORBITAL POPULATIONS PER MO
-------------------------------------------
THRESHOLD FOR PRINTING IS 0.1%%
                      0         1         2         3         4         5   
                 -18.99629 -18.92616 -10.15002 -10.09179 -10.04312 -10.03241
                   2.00000   2.00000   2.00000   2.00000   2.00000   2.00000
                  --------  --------  --------  --------  --------  --------
 1 C  s               0.0       0.0       0.0       0.0      99.7       0.0
 2 C  s               0.0       0.0      98.9       0.0       0.0       0.0
 3 O  s               0.0      99.9       0.0       0.0       0.0       0.0
 3 O  py              0.0       0.0       0.2       0.0       0.0       0.0
 3 O  dyz             0.0       0.0       0.2       0.0       0.0       0.0
 3 O  dx2y2           0.0       0.0       0.1       0.0       0.0       0.0
 4 O  s              99.9       0.0       0.0       0.0       0.0       0.0
 4 O  dxz             0.0       0.0       0.1       0.0       0.0       0.0
 4 O  dxy             0.0       0.0       0.1       0.1       0.0       0.0
 5 C  s               0.0       0.0       0.0      99.4       0.0       0.0
 6 C  s               0.0       0.0       0.0       0.0       0.0      99.7

                      6         7         8         9        10        11   
                 -10.03164  -1.07182  -0.97288  -0.76717  -0.73351  -0.63818
                   2.00000   2.00000   2.00000   2.00000   2.00000   2.00000
                  --------  --------  --------  --------  --------  --------
 0 C  s              99.7       0.1       0.0      11.1      12.0      15.4
 0 C  pz              0.0       0.1       0.0       1.7       0.9       1.0
 0 C  px              0.0       0.1       0.0       0.4       0.1       0.5
 1 C  s               0.0       1.0       0.2      18.9      10.8       1.2
 1 C  pz              0.1       0.0       0.1       0.9       0.9       3.9
 1 C  px              0.0       1.6       0.1       0.2       0.7       4.4
 1 C  py              0.0       0.4       0.4       0.1       0.1       0.0
 1 C  dz2             0.0       0.0       0.0       0.0       0.0       0.2
 2 C  s               0.0      16.0       4.4       3.7       0.4       4.0
 2 C  pz              0.0       0.2       6.7       1.5       0.2       0.4
 2 C  px              0.0       4.9       1.8       4.0       3.8       0.7
 2 C  py              0.0       0.0      14.4       5.3       0.1       3.6
 2 C  dxz             0.0       0.3       0.2       0.0       0.1       0.0
 2 C  dyz             0.0       0.5       0.6       0.0       0.0       0.0
 2 C  dx2y2           0.0       0.0       1.0       0.1       0.0       0.0
 2 C  dxy             0.0       0.2       0.2       0.0       0.2       0.0
 3 O  s               0.0      11.1      43.3       1.8       0.0       0.9
 3 O  pz              0.0       0.8       0.9       0.1       0.0       0.1
 3 O  px              0.0       0.0       0.1       0.1       0.1       0.1
 3 O  py              0.0       2.2       2.8       0.4       0.0       0.6
 3 O  dyz             0.0       0.9       0.1       0.2       0.0       0.2
 3 O  dx2y2           0.0       0.3       0.1       0.2       0.0       0.3
 3 O  dxy             0.0       0.1       0.1       0.2       0.1       0.1
 4 O  s               0.0      42.7      15.1       0.0       1.5       0.3
 4 O  pz              0.0       0.8       0.2       0.2       0.3       0.3
 4 O  px              0.0       0.3       0.7      10.4       3.9      11.7
 4 O  py              0.0       1.8       0.2       0.2       0.1       0.4
 4 O  dz2             0.0       0.1       0.0       0.0       0.5       0.0
 4 O  dxz             0.0       0.2       0.2       0.1       0.0       0.7
 4 O  dyz             0.0       0.3       0.4       0.0       0.0       0.0
 4 O  dx2y2           0.0       0.1       0.1       0.0       1.2       0.5
 4 O  dxy             0.0       0.1       0.7       0.4       0.4       0.3
 5 C  s               0.0       4.5       1.8       9.9      11.9       1.5
 5 C  pz              0.0       0.0       0.1       0.3       0.9       1.0
 5 C  px              0.0       4.9       1.0       0.5       2.9       4.4
 5 C  py              0.0       0.7       0.6       0.3       0.3       0.3
 5 C  dz2             0.0       0.1       0.1       0.0       0.0       0.0
 5 C  dx2y2           0.0       0.1       0.1       0.0       0.0       0.0
 5 C  dxy             0.0       0.2       0.1       0.0       0.1       0.2
 6 C  s               0.0       0.3       0.2       7.4      19.0      12.3
 6 C  pz              0.0       0.2       0.1       0.4       0.4       0.4
 6 C  px              0.0       0.5       0.3       0.6       0.4       1.1
 6 C  py              0.0       0.1       0.0       0.2       0.3       0.1
 7 H  s               0.0       0.0       0.0       1.5       2.0       4.6
 7 H  px              0.0       0.0       0.0       0.1       0.1       0.3
 8 H  s               0.0       0.0       0.0       1.5       1.9       4.0
 8 H  py              0.0       0.0       0.0       0.1       0.2       0.3
 9 H  s               0.0       0.0       0.0       1.6       1.9       3.8
 9 H  pz              0.0       0.0       0.0       0.1       0.1       0.1
 9 H  px              0.0       0.0       0.0       0.1       0.1       0.2
10 H  s               0.0       0.1       0.0       3.0       1.6       0.6
10 H  py              0.0       0.0       0.0       0.3       0.1       0.1
11 H  s               0.0       0.1       0.0       2.5       1.9       0.3
11 H  pz              0.0       0.0       0.0       0.1       0.1       0.0
11 H  px              0.0       0.0       0.0       0.1       0.1       0.0
12 H  s               0.0       0.3       0.1       1.4       1.9       0.4
12 H  py              0.0       0.0       0.0       0.1       0.2       0.0
13 H  s               0.0       0.3       0.1       1.4       2.0       0.4
13 H  pz              0.0       0.0       0.0       0.1       0.2       0.0
14 H  s               0.0       0.0       0.0       1.1       3.1       3.2
14 H  py              0.0       0.0       0.0       0.1       0.3       0.2
15 H  s               0.0       0.0       0.0       1.1       3.1       3.2
15 H  pz              0.0       0.0       0.0       0.1       0.3       0.2
16 H  s               0.0       0.0       0.0       1.1       3.4       3.9
16 H  px              0.0       0.0       0.0       0.1       0.2       0.2

                     12        13        14        15        16        17   
                  -0.59459  -0.53456  -0.46830  -0.45799  -0.44094  -0.41082
                   2.00000   2.00000   2.00000   2.00000   2.00000   2.00000
                  --------  --------  --------  --------  --------  --------
 0 C  s               8.7       0.3       0.0       0.2       0.0       0.0
 0 C  pz              4.1       0.9       0.0       1.8       1.7       6.0
 0 C  px              0.3       0.0       2.2       0.2       5.5       3.3
 0 C  py              0.2       0.2       4.0       4.0       2.0      10.4
 1 C  s               9.1       1.5       0.5       1.3       0.1       0.0
 1 C  pz              5.4       0.7       0.4       0.2       3.3       0.6
 1 C  px              0.0       1.6       2.7       4.9       8.6       6.1
 1 C  py              0.2       0.4      11.3       8.4       4.0       9.0
 1 C  dxy             0.0       0.0       0.2       0.1       0.0       0.0
 2 C  s               0.2       2.7       1.0       1.6       1.0       1.2
 2 C  pz              0.7       1.0       5.0       1.8       1.0       2.7
 2 C  px              5.0       1.9       7.8       5.2       1.3       0.1
 2 C  py              0.3       0.6       1.5       1.0       2.2       1.7
 2 C  dyz             0.0       0.0       0.0       0.0       0.1       0.0
 2 C  dx2y2           0.0       0.0       0.0       0.0       0.3       0.0
 2 C  dxy             0.2       0.0       0.0       0.0       0.0       0.2
 3 O  s               0.2       1.8       1.1       1.4       8.6       4.6
 3 O  pz              0.0       0.9       3.7       0.0       4.6       1.9
 3 O  px              0.4       0.9       3.6       3.4       0.2       0.1
 3 O  py              0.1       1.0       0.2       4.4      14.0      16.5
 3 O  dz2             0.1       0.0       0.2       0.2       0.0       0.0
 3 O  dxz             0.0       0.1       0.1       0.3       0.0       0.0
 3 O  dyz             0.0       0.2       0.2       0.0       0.2       0.1
 3 O  dx2y2           0.0       0.0       0.0       0.2       0.1       0.2
 3 O  dxy             0.2       0.1       0.5       0.2       0.0       0.0
 4 O  s               0.5       5.1       0.0       0.1       0.9       1.3
 4 O  pz              0.1       4.3      15.7       2.6       4.6       0.5
 4 O  px              7.0      12.8       0.2       1.6       1.7       2.9
 4 O  py              0.2       5.6       1.6       7.8      11.2       1.2
 4 O  dz2             0.2       0.2       0.3       0.0       0.1       0.0
 4 O  dxz             0.0       0.1       0.3       0.1       0.1       0.4
 4 O  dyz             0.0       0.1       0.3       0.0       0.1       0.0
 4 O  dx2y2           0.2       0.0       0.0       1.4       0.4       0.1
 4 O  dxy             1.0       0.4       0.1       0.4       0.3       0.0
 5 C  s               6.4       6.0       0.1       0.1       0.4       0.1
 5 C  pz              1.5       3.1      11.7       6.9       0.3       0.7
 5 C  px              0.8       5.0       1.1       1.5       3.4       1.6
 5 C  py              0.9      13.6       1.4       9.7       0.0       0.3
 5 C  dz2             0.0       0.1       0.0       0.0       0.0       0.0
 5 C  dxy             0.0       0.3       0.0       0.0       0.0       0.0
 6 C  s               7.7       0.4       0.1       0.1       0.2       0.0
 6 C  pz              1.5       1.5       1.6       5.9       1.6       1.6
 6 C  px              1.8       0.2       2.6       0.1       1.1       2.3
 6 C  py              0.9       3.8       1.3       2.0       1.1       0.5
 7 H  s               3.1       0.1       1.6       0.2       0.4       0.1
 7 H  px              0.2       0.0       0.1       0.0       0.0       0.0
 8 H  s               3.1       0.2       0.6       1.8       0.9       3.6
 8 H  py              0.2       0.0       0.0       0.1       0.0       0.1
 9 H  s               3.5       0.4       0.0       0.4       2.7       5.7
 9 H  px              0.1       0.0       0.0       0.0       0.0       0.1
10 H  s               3.1       0.8       4.4       4.0       1.8       3.8
10 H  py              0.2       0.0       0.1       0.1       0.1       0.1
11 H  s               4.1       1.7       0.5       0.9       5.0       4.2
11 H  pz              0.1       0.1       0.0       0.0       0.1       0.1
11 H  px              0.2       0.0       0.0       0.0       0.1       0.0
12 H  s               2.3       7.5       1.7       4.1       0.1       0.0
12 H  py              0.2       0.3       0.1       0.1       0.0       0.0
13 H  s               2.7       6.4       3.4       3.3       0.2       0.5
13 H  pz              0.2       0.4       0.1       0.1       0.0       0.0
14 H  s               2.8       1.0       1.1       0.9       0.5       0.0
14 H  py              0.2       0.0       0.0       0.0       0.0       0.0
15 H  s               2.9       0.8       0.5       2.0       0.6       1.1
15 H  pz              0.2       0.0       0.0       0.1       0.0       0.0
16 H  s               3.0       0.0       0.6       0.3       0.2       1.4
16 H  px              0.1       0.0       0.0       0.0       0.0       0.0

                     18        19        20        21        22        23   
                  -0.40245  -0.37875  -0.37299  -0.35112  -0.34413  -0.32711
                   2.00000   2.00000   2.00000   2.00000   2.00000   2.00000
                  --------  --------  --------  --------  --------  --------
 0 C  s               0.2       0.0       0.0       0.3       0.0       0.0
 0 C  pz              4.1       0.6       0.5      16.1       1.5       3.8
 0 C  px             10.1       8.9       3.4       2.1       5.4      11.0
 0 C  py              0.3       7.9       0.1       0.0      17.3       8.9
 0 C  dz2             0.1       0.0       0.0       0.1       0.0       0.3
 0 C  dxz             0.0       0.0       0.0       0.1       0.1       0.3
 0 C  dyz             0.0       0.0       0.0       0.0       0.0       0.1
 0 C  dx2y2           0.0       0.0       0.0       0.0       0.2       0.1
 0 C  dxy             0.0       0.1       0.0       0.0       0.2       0.0
 1 C  s               0.6       0.2       0.0       0.2       0.2       0.0
 1 C  pz              8.6       0.0       0.0      15.1       2.1       3.6
 1 C  px              0.1       1.8       0.1       1.7       0.9       9.8
 1 C  py              0.0       0.5       0.0       0.3       4.9       7.8
 1 C  dz2             0.0       0.0       0.0       0.1       0.0       0.3
 1 C  dxz             0.0       0.0       0.0       0.1       0.1       0.3
 1 C  dyz             0.1       0.0       0.0       0.1       0.1       0.1
 1 C  dx2y2           0.1       0.0       0.0       0.0       0.1       0.2
 1 C  dxy             0.0       0.0       0.0       0.0       0.2       0.0
 2 C  s               0.1       0.4       0.1       0.1       0.3       0.1
 2 C  pz              8.8       1.1       0.5       0.1       0.5       0.1
 2 C  px              0.1       0.0       0.6       1.4       5.1       0.9
 2 C  py              4.3       3.2       0.5       0.5       0.4       0.1
 2 C  dxz             0.0       0.1       0.0       0.2       0.0       0.1
 2 C  dx2y2           0.0       0.2       0.0       0.0       0.0       0.1
 3 O  s               0.0       1.2       0.2       0.2       0.1       0.0
 3 O  pz              6.9       7.1       0.1       0.4       0.0       0.7
 3 O  px              0.5       1.0       0.7       1.0       4.7       0.1
 3 O  py              2.5       3.2       1.0       1.3       1.2       0.1
 3 O  dz2             0.4       0.2       0.0       0.0       0.0       0.0
 3 O  dxz             0.0       0.0       0.0       0.1       0.0       0.0
 3 O  dyz             0.2       0.1       0.0       0.0       0.0       0.0
 3 O  dx2y2           0.2       0.0       0.0       0.0       0.0       0.0
 3 O  dxy             0.1       0.0       0.0       0.2       0.1       0.0
 4 O  s               0.5       0.5       1.0       0.0       0.1       0.0
 4 O  pz              0.6       7.5       0.1       4.3       0.0       0.1
 4 O  px              0.2       2.0       3.9       0.1       0.3       1.5
 4 O  py              7.2       0.9       0.1       3.1       0.5       0.1
 4 O  dz2             0.4       0.1       0.1       0.1       0.0       0.2
 4 O  dxz             1.4       0.0       0.3       0.0       0.3       0.1
 4 O  dx2y2           0.0       0.0       0.3       0.2       0.0       0.0
 4 O  dxy             0.4       0.4       0.0       0.1       0.0       0.2
 5 C  s               0.1       0.1       0.4       0.0       0.1       0.0
 5 C  pz              4.9       2.7       0.3       0.0       6.4       0.0
 5 C  px              0.6       6.5       1.4       2.6       1.7       1.3
 5 C  py              1.1       2.1       0.2       4.0       1.7       0.3
 5 C  dz2             0.0       0.0       0.1       0.2       0.0       0.0
 5 C  dxz             0.1       0.0       0.0       0.1       0.1       0.0
 5 C  dx2y2           0.1       0.0       0.2       0.0       0.0       0.0
 5 C  dxy             0.0       0.1       0.2       0.0       0.1       0.0
 6 C  s               0.0       0.1       0.0       0.1       0.2       0.0
 6 C  pz              3.4      16.4       0.1       3.5       9.0       0.0
 6 C  px              2.0       0.2      32.2       4.8       1.5       1.6
 6 C  py             10.8       1.8      14.5      11.5       1.0       0.3
 6 C  dz2             0.0       0.1       0.1       0.2       0.0       0.0
 6 C  dxz             0.0       0.1       0.0       0.0       0.1       0.0
 6 C  dx2y2           0.0       0.0       0.3       0.1       0.0       0.0
 6 C  dxy             0.0       0.0       0.3       0.0       0.0       0.0
 7 H  s               4.2       6.9       0.9       1.8       9.3       0.8
 7 H  pz              0.0       0.0       0.0       0.1       0.0       0.0
 7 H  px              0.0       0.1       0.0       0.0       0.2       0.0
 7 H  py              0.1       0.0       0.0       0.0       0.0       0.1
 8 H  s               1.1       2.7       0.2       0.1       8.4       7.9
 8 H  pz              0.0       0.0       0.0       0.1       0.0       0.0
 8 H  px              0.0       0.1       0.0       0.0       0.1       0.0
 9 H  s               0.1       1.4       1.5       2.0       0.9      13.4
 9 H  pz              0.1       0.0       0.0       0.0       0.0       0.1
 9 H  px              0.0       0.0       0.0       0.1       0.0       0.1
 9 H  py              0.0       0.1       0.0       0.0       0.2       0.0
10 H  s               0.1       0.0       0.0       0.3       3.7       7.6
10 H  pz              0.1       0.0       0.0       0.1       0.0       0.0
11 H  s               0.7       0.0       0.0       1.5       1.1      13.0
11 H  pz              0.0       0.0       0.0       0.0       0.0       0.1
11 H  px              0.0       0.0       0.0       0.1       0.0       0.0
12 H  s               1.2       0.5       0.2       2.8       0.3       0.3
13 H  s               1.2       0.2       0.2       0.4       2.6       0.1
13 H  px              0.0       0.1       0.0       0.0       0.1       0.0
14 H  s               6.3       0.1       5.2       8.7       0.0       0.2
14 H  pz              0.0       0.1       0.0       0.0       0.1       0.0
14 H  px              0.0       0.0       0.3       0.0       0.0       0.0
14 H  py              0.2       0.0       0.1       0.1       0.0       0.0
15 H  s               1.8       7.1       2.1       3.9       3.2       0.2
15 H  pz              0.0       0.1       0.1       0.1       0.0       0.0
15 H  px              0.0       0.1       0.1       0.0       0.1       0.0
15 H  py              0.1       0.0       0.1       0.1       0.0       0.0
16 H  s               0.0       0.0      24.6       0.2       0.1       0.5
16 H  pz              0.0       0.1       0.0       0.0       0.1       0.0
16 H  px              0.0       0.0       0.3       0.0       0.0       0.0
16 H  py              0.1       0.0       0.0       0.1       0.0       0.0

                     24        25        26        27        28        29   
                  -0.32174  -0.31299  -0.27084  -0.23128  -0.01387   0.07236
                   2.00000   2.00000   2.00000   2.00000   0.00000   0.00000
                  --------  --------  --------  --------  --------  --------
 0 C  s               0.4       0.0       0.0       0.0       2.2       6.3
 0 C  pz              6.6       1.3       0.2       0.3       2.4       2.9
 0 C  px              0.5       1.9       0.1       0.5       0.2       1.8
 0 C  py              1.8       0.4       0.2       0.1       0.1       0.3
 0 C  dz2             0.1       0.0       0.0       0.0       0.0       0.3
 0 C  dxz             0.1       0.0       0.0       0.0       0.1       0.2
 1 C  s               0.2       0.1       0.0       0.6       0.1       9.4
 1 C  pz              6.8       0.8       0.0       0.8       0.4       1.2
 1 C  px              0.0       3.7       0.0       3.1       0.6       0.2
 1 C  py              3.9       0.1       0.1       3.3       0.1       0.6
 1 C  dz2             0.1       0.1       0.0       0.0       0.5       0.0
 1 C  dxz             0.2       0.0       0.0       0.0       1.1       0.0
 1 C  dx2y2           0.1       0.0       0.0       0.1       0.3       0.1
 1 C  dxy             0.0       0.1       0.0       0.0       0.1       0.0
 2 C  s               0.1       0.5       0.0       0.3       0.0      10.3
 2 C  pz              4.0       2.7       0.3       0.2      27.2       0.0
 2 C  px              0.1       0.4       0.0       1.4       1.4       1.5
 2 C  py              3.5       2.4       0.1       0.5      10.0       0.6
 2 C  dz2             0.1       0.1       1.3       0.1       0.2       0.6
 2 C  dxz             0.1       0.0       0.1       1.0       0.3       0.2
 2 C  dyz             0.0       0.3       0.3       0.1       0.3       0.7
 2 C  dx2y2           0.4       0.3       0.1       0.0       0.3       0.2
 2 C  dxy             0.0       0.1       0.3       2.8       0.0       0.1
 3 O  s               0.1       1.0       0.0       0.0       0.0       1.4
 3 O  pz             19.0       0.2      22.3       2.6      17.0       0.1
 3 O  px              0.9       0.1       1.0      68.2       0.9       0.3
 3 O  py              2.0      11.2       8.5       0.3       6.4       0.2
 3 O  dz2             0.2       0.0       0.1       0.0       3.0       0.7
 3 O  dxz             0.0       0.0       0.0       0.1       0.4       0.0
 3 O  dyz             0.0       0.3       0.0       0.0       1.6       1.3
 3 O  dx2y2           0.1       0.2       0.0       0.0       1.7       0.1
 3 O  dxy             0.0       0.0       0.0       0.5       0.1       0.2
 4 O  s               0.2       2.8       0.0       0.3       0.0       7.0
 4 O  pz              1.9       5.4      31.7       2.5       6.8       0.1
 4 O  px              0.4       1.4       1.6       1.5       0.3       0.6
 4 O  py              1.2      24.3      11.3       3.7       2.3       0.8
 4 O  dz2             0.0       0.2       0.5       0.0       2.3       1.9
 4 O  dxz             0.8       0.1       0.2       0.1       2.6       0.4
 4 O  dyz             0.0       0.1       0.2       0.4       0.0       1.9
 4 O  dx2y2           0.0       1.7       0.3       0.0       0.0       0.6
 4 O  dxy             0.1       0.1       0.0       0.1       1.3       0.4
 5 C  s               0.1       0.6       0.0       0.2       0.0       4.2
 5 C  pz              8.8       0.7       3.8       0.1       0.1       0.5
 5 C  px              0.9       0.1       0.2       0.5       0.0      12.3
 5 C  py              0.7      11.9       1.3       0.2       0.0       4.7
 5 C  dz2             0.3       0.0       0.3       0.0       0.1       0.5
 5 C  dxz             0.1       0.2       0.4       0.0       0.2       0.0
 5 C  dyz             0.0       0.0       0.1       0.0       0.0       0.1
 5 C  dx2y2           0.0       0.6       0.3       0.0       0.1       0.6
 5 C  dxy             0.0       0.0       0.0       0.0       0.0       0.6
 6 C  s               0.1       0.5       0.0       0.0       0.0       2.3
 6 C  pz              7.2       0.7       0.5       0.0       0.0       0.2
 6 C  px              0.3       1.1       0.0       0.1       0.0       0.3
 6 C  py              0.8       5.5       0.1       0.0       0.0       0.1
 6 C  dz2             0.3       0.0       0.1       0.0       0.0       0.1
 6 C  dyz             0.0       0.0       0.0       0.0       0.0       0.2
 6 C  dx2y2           0.0       0.1       0.0       0.0       0.0       0.4
 7 H  s               0.0       1.8       0.0       0.8       0.8       1.6
 7 H  pz              0.1       0.0       0.0       0.0       0.1       0.2
 7 H  px              0.0       0.0       0.0       0.0       0.1       0.2
 7 H  py              0.0       0.0       0.0       0.0       0.0       0.2
 8 H  s               1.4       0.1       0.1       0.2       0.1       0.7
 8 H  py              0.0       0.0       0.0       0.0       0.0       0.3
 9 H  s               0.4       0.0       0.2       0.0       0.1       1.1
 9 H  px              0.0       0.0       0.0       0.0       0.0       0.6
10 H  s               3.1       0.0       0.0       1.2       1.5       0.7
10 H  py              0.0       0.0       0.0       0.0       0.1       0.5
11 H  s               1.2       0.2       0.1       0.1       0.5       0.9
11 H  pz              0.0       0.0       0.0       0.0       0.0       0.2
11 H  px              0.0       0.0       0.0       0.1       0.0       0.4
12 H  s               2.1       7.1       4.4       0.0       0.4       1.5
12 H  pz              0.0       0.1       0.0       0.0       0.0       0.4
12 H  px              0.0       0.0       0.0       0.0       0.0       0.8
12 H  py              0.1       0.0       0.0       0.0       0.0       0.2
13 H  s               7.4       0.5       5.6       0.0       0.6       1.8
13 H  pz              0.1       0.0       0.0       0.0       0.0       0.7
13 H  px              0.0       0.0       0.0       0.0       0.0       0.2
13 H  py              0.0       0.2       0.0       0.0       0.0       0.4
14 H  s               2.4       2.7       0.5       0.1       0.0       0.2
14 H  pz              0.0       0.0       0.0       0.0       0.0       0.2
15 H  s               5.3       0.0       0.6       0.0       0.0       0.3
15 H  px              0.0       0.0       0.0       0.0       0.0       0.1
16 H  s               0.0       0.1       0.0       0.3       0.0       2.0
16 H  px              0.0       0.0       0.0       0.0       0.0       0.3

                     30        31        32        33        34        35   
                   0.09558   0.11920   0.12352   0.13203   0.14226   0.15492
                   0.00000   0.00000   0.00000   0.00000   0.00000   0.00000
                  --------  --------  --------  --------  --------  --------
 0 C  s               0.1       1.2      31.4       1.0       0.2       0.1
 0 C  pz              0.1       4.0       7.8       8.6       0.1       2.7
 0 C  px              0.6       1.7       5.9       0.9       2.4       8.5
 0 C  py              0.0       1.0       0.5       1.5       3.3       1.1
 0 C  dz2             0.0       0.6       0.0       0.6       0.1       0.2
 0 C  dxz             0.0       0.0       0.0       0.1       0.0       0.2
 0 C  dyz             0.0       0.2       0.0       0.2       0.4       0.1
 0 C  dxy             0.1       0.1       0.2       0.1       0.3       0.1
 1 C  s               0.3       8.5       0.7       8.0       0.9       1.0
 1 C  pz              0.4       2.5       8.3       4.2       1.2       3.8
 1 C  px              0.3       0.8       2.6       1.7       6.4       6.3
 1 C  py              0.1       2.4       0.7       1.9       7.2       2.2
 1 C  dz2             0.0       0.1       0.6       0.2       0.1       0.1
 1 C  dxz             0.1       0.1       0.1       0.0       0.1       0.7
 1 C  dyz             0.0       0.0       0.3       0.1       0.0       0.2
 1 C  dx2y2           0.2       0.6       0.0       0.0       0.6       0.3
 1 C  dxy             0.0       0.0       0.0       0.1       1.2       0.0
 2 C  s               0.4       2.6       0.1       0.0       1.7       0.2
 2 C  pz              0.1       1.8       3.9       0.1       2.4       2.2
 2 C  px              0.0       1.2       0.5       1.2       0.2       0.3
 2 C  py              0.5       1.6       1.0       1.8       6.7       0.2
 2 C  dz2             0.0       0.0       0.1       0.0       0.2       0.0
 2 C  dyz             0.3       0.5       0.0       0.0       0.1       0.1
 2 C  dx2y2           0.5       0.4       0.0       0.0       0.1       0.2
 3 O  s               0.2       1.3       0.1       0.3       0.1       0.0
 3 O  pz              0.1       0.1       0.3       0.0       0.4       0.6
 3 O  px              0.1       0.3       0.4       1.0       0.0       0.0
 3 O  py              0.2       0.4       0.1       0.2       0.0       0.0
 3 O  dz2             0.1       0.0       0.7       0.1       0.5       0.0
 3 O  dxz             0.2       0.2       0.2       0.1       0.1       0.1
 3 O  dyz             0.0       0.4       0.0       0.1       0.2       0.0
 3 O  dx2y2           0.2       0.1       0.0       0.2       2.2       0.1
 3 O  dxy             0.2       0.1       0.0       0.0       0.0       0.1
 4 O  s               2.1       1.9       0.3       0.1       0.3       0.3
 4 O  pz              0.3       0.1       0.3       0.0       0.1       0.2
 4 O  px              4.1       1.8       0.3       0.3       0.8       0.2
 4 O  py              2.3       0.4       0.7       0.1       2.5       0.2
 4 O  dz2             2.0       0.3       0.3       0.3       0.0       0.7
 4 O  dxz             0.2       0.0       0.0       0.2       0.1       1.0
 4 O  dyz             0.5       0.2       0.9       0.1       0.4       0.1
 4 O  dx2y2           1.4       1.0       0.0       0.0       3.0       1.8
 4 O  dxy             5.1       0.1       0.8       0.2       1.8       0.0
 5 C  s              14.4       1.4       0.4       7.2       0.4       0.3
 5 C  pz              0.4       2.9       0.6       1.8       4.1      13.3
 5 C  px             15.2       2.3       1.7       4.5       2.9       3.4
 5 C  py              4.3       6.4       0.5       2.2       7.7       1.2
 5 C  dz2             0.3       0.3       0.1       0.2       0.5       0.3
 5 C  dxz             0.2       0.2       0.0       0.0       0.0       0.1
 5 C  dyz             0.1       0.4       0.0       0.1       0.0       0.2
 5 C  dx2y2           0.2       0.4       0.2       0.1       0.1       0.0
 5 C  dxy             1.0       0.1       0.1       0.3       0.1       0.3
 6 C  s              14.8      17.4       1.1       8.1       1.0       0.0
 6 C  pz              1.0       1.3       0.7       8.1       2.3       5.0
 6 C  px              0.7       5.5       0.0       6.6       3.0       9.4
 6 C  py              1.2       0.3       0.8       6.9       3.1       0.2
 6 C  dz2             0.1       0.0       0.0       0.1       0.4       0.8
 6 C  dxz             0.4       0.1       0.0       0.3       0.2       0.2
 6 C  dyz             0.0       0.1       0.1       0.4       0.2       0.0
 6 C  dx2y2           0.5       0.2       0.0       0.1       0.1       0.0
 6 C  dxy             0.0       0.0       0.0       0.5       0.1       0.0
 7 H  s               0.1       1.3       1.7       0.7       1.4       0.2
 7 H  pz              0.0       0.1       0.0       0.1       0.1       0.0
 7 H  px              0.0       0.1       1.3       0.0       0.0       0.0
 7 H  py              0.0       0.4       0.5       0.1       0.3       0.1
 8 H  s               0.0       0.9       4.3       0.2       0.7       1.7
 8 H  pz              0.0       0.3       0.0       0.3       0.2       0.1
 8 H  px              0.1       0.1       0.3       0.1       0.3       0.0
[...]
 2 C  dx2y2           0.1       0.8       3.1       0.4       1.1       2.8
 2 C  dxy             0.1       1.5       8.8       1.0       5.6       0.1
 3 O  s               0.3       0.3       0.5       1.1       0.8      18.7
 3 O  pz              0.0       0.1       0.9       0.2       0.1       5.8
 3 O  px              0.1       0.6       6.2       0.2       0.2       0.2
 3 O  py              0.0       0.0       0.4       0.5       0.3      15.9
 3 O  dz2             0.0       0.4       0.3       0.0       0.3       0.4
 3 O  dxz             0.1       1.0       7.1       0.0       0.2       0.1
 3 O  dyz             0.0       0.3       1.3       1.0       0.1      18.8
 3 O  dx2y2           0.1       0.1       0.3       1.1       0.0      13.8
 3 O  dxy             0.7       1.4      15.1       0.1       1.3       0.3
 4 O  s               0.1       0.3       3.7      26.9       4.8       1.3
 4 O  pz              0.1       0.1       2.3       0.9       3.3       0.0
 4 O  px              0.0       0.0       0.2       5.9      28.4       0.7
 4 O  py              0.1       0.9       4.9       7.0       0.9       0.1
 4 O  dz2             0.3       0.5       0.0       8.4       0.0       0.6
 4 O  dxz             0.2       0.3       0.0       1.3       9.2       0.0
 4 O  dyz             0.1       0.3       4.4       1.3       2.1       0.0
 4 O  dx2y2           0.1       0.5       5.9      10.6       0.9       0.6
 4 O  dxy             0.1       0.3       0.1       3.1      17.0       0.9
 5 C  s               0.0       0.0       0.3       1.3       0.7       0.2
 5 C  pz              3.9       0.5       0.0       0.1       0.0       0.0
 5 C  px              0.8       0.1       0.0       6.0       1.8       0.3
 5 C  py              3.9       0.4       0.1       1.7       0.6       0.1
 5 C  dz2            10.0       1.5       0.0       3.5       0.6       0.1
 5 C  dxz             0.8       0.2       0.1       0.0       0.0       0.0
 5 C  dyz             1.8       0.4       0.3       0.1       0.0       0.0
 5 C  dx2y2           6.3       0.4       0.3       3.5       1.0       0.1
 5 C  dxy             0.1       0.0       0.3       5.2       1.4       0.4
 6 C  pz              0.8       0.0       0.0       0.0       0.0       0.0
 6 C  px              0.1       0.0       0.0       0.1       0.0       0.0
 6 C  py              1.2       0.2       0.0       0.1       0.0       0.0
 6 C  dz2             3.1       0.0       0.1       0.1       0.0       0.0
 6 C  dxz             0.6       0.0       0.0       0.0       0.0       0.0
 6 C  dyz             1.2       0.1       0.0       0.0       0.0       0.0
 6 C  dx2y2           2.8       0.6       0.1       0.2       0.0       0.0
 6 C  dxy             0.0       0.0       0.0       0.2       0.0       0.0
 7 H  s               0.1       0.7       0.5       0.0       0.0       0.0
 7 H  px              0.2       0.8       1.1       0.0       0.0       0.0
 7 H  py              0.1       0.7       0.1       0.0       0.0       0.0
 8 H  s               0.2       2.0       0.0       0.0       0.0       0.0
 8 H  pz              0.0       0.2       0.0       0.0       0.0       0.0
 8 H  px              0.0       0.6       0.0       0.0       0.0       0.0
 8 H  py              0.5       4.4       0.1       0.0       0.0       0.0
 9 H  s               0.6       0.4       0.1       0.0       0.0       0.0
 9 H  pz              0.8       0.8       0.5       0.0       0.0       0.0
 9 H  px              0.5       0.3       0.0       0.0       0.0       0.0
 9 H  py              0.2       0.0       0.1       0.0       0.0       0.0
10 H  s               0.6       6.2       0.2       0.0       0.0       0.0
10 H  pz              0.1       0.6       0.0       0.0       0.0       0.0
10 H  px              0.1       0.4       0.0       0.0       0.0       0.0
10 H  py              1.4      13.3       0.3       0.0       0.0       0.0
11 H  s               0.5       4.0       2.7       0.0       0.1       0.0
11 H  pz              0.7       4.5       3.4       0.0       0.0       0.1
11 H  px              0.5       3.6       1.8       0.0       0.0       0.0
11 H  py              0.0       0.5       0.3       0.0       0.0       0.0
12 H  s               5.8       0.7       0.0       0.4       0.1       0.0
12 H  pz              0.5       0.0       0.0       0.1       0.1       0.0
12 H  px              0.3       0.0       0.3       0.4       0.1       0.0
12 H  py             13.4       1.5       0.1       0.4       0.0       0.0
13 H  s               4.5       0.6       0.0       0.5       0.0       0.0
13 H  pz             10.4       1.5       0.0       1.1       0.1       0.0
13 H  px              0.5       0.1       0.1       0.0       0.0       0.0
13 H  py              0.1       0.0       0.0       0.1       0.1       0.0
14 H  s               2.0       0.2       0.0       0.0       0.0       0.0
14 H  pz              0.2       0.0       0.0       0.0       0.0       0.0
14 H  px              0.2       0.0       0.0       0.0       0.0       0.0
14 H  py              4.6       0.5       0.0       0.0       0.0       0.0
15 H  s               1.2       0.0       0.0       0.0       0.0       0.0
15 H  pz              2.9       0.1       0.0       0.0       0.0       0.0
16 H  px              0.0       0.0       0.0       0.2       0.0       0.0

                    186       187       188       189       190       191   
                  21.89014  21.91400  21.98336  22.05198  22.27788  43.68056
                   0.00000   0.00000   0.00000   0.00000   0.00000   0.00000
                  --------  --------  --------  --------  --------  --------
 0 C  s               8.4      86.3       0.0       1.7       3.3       0.0
 1 C  s              14.7       0.0      29.9      54.6       0.5       0.0
 2 C  s               0.1       3.3       3.2       0.1      92.4       0.0
 3 O  s               0.0       0.0       0.0       0.0       0.2      97.6
 3 O  py              0.0       0.0       0.0       0.0       0.1       0.0
 4 O  s               0.0       0.0       0.0       0.1       0.1       2.3
 4 O  px              0.0       0.0       0.0       0.0       0.1       0.0
 5 C  s              17.1       3.4      33.7      43.1       2.2       0.0
 6 C  s              59.3       6.6      33.0       0.1       0.6       0.0

                    192   
                  43.74684
                   0.00000
                  --------
 3 O  s               2.3
 4 O  s              97.6


                      *****************************
                      * MAYER POPULATION ANALYSIS *
                      *****************************

  NA   - Mulliken gross atomic population
  ZA   - Total nuclear charge
  QA   - Mulliken gross atomic charge
  VA   - Mayer's total valence
  BVA  - Mayer's bonded valence
  FA   - Mayer's free valence

  ATOM       NA         ZA         QA         VA         BVA        FA
  0 C      6.4718     6.0000    -0.4718     3.8175     3.8175     0.0000
  1 C      6.2950     6.0000    -0.2950     3.7858     3.7858     0.0000
  2 C      5.5998     6.0000     0.4002     3.7433     3.7433     0.0000
  3 O      8.4231     8.0000    -0.4231     1.9415     1.9415     0.0000
  4 O      8.1693     8.0000    -0.1693     1.9167     1.9167     0.0000
  5 C      6.1484     6.0000    -0.1484     3.6776     3.6776     0.0000
  6 C      6.4412     6.0000    -0.4412     3.8371     3.8371    -0.0000
  7 H      0.8466     1.0000     0.1534     0.9606     0.9606     0.0000
  8 H      0.8422     1.0000     0.1578     0.9613     0.9613    -0.0000
  9 H      0.8429     1.0000     0.1571     0.9618     0.9618    -0.0000
 10 H      0.8478     1.0000     0.1522     0.9625     0.9625    -0.0000
 11 H      0.8369     1.0000     0.1631     0.9599     0.9599     0.0000
 12 H      0.8391     1.0000     0.1609     0.9522     0.9522     0.0000
 13 H      0.8470     1.0000     0.1530     0.9509     0.9509     0.0000
 14 H      0.8478     1.0000     0.1522     0.9613     0.9613     0.0000
 15 H      0.8484     1.0000     0.1516     0.9617     0.9617    -0.0000
 16 H      0.8527     1.0000     0.1473     0.9638     0.9638     0.0000

  Mayer bond orders larger than 0.100000
B(  0-C ,  1-C ) :   0.8959 B(  0-C ,  7-H ) :   0.9708 B(  0-C ,  8-H ) :   0.9743 
B(  0-C ,  9-H ) :   0.9774 B(  1-C ,  2-C ) :   0.9525 B(  1-C , 10-H ) :   0.9725 
B(  1-C , 11-H ) :   0.9775 B(  2-C ,  3-O ) :   1.8234 B(  2-C ,  4-O ) :   1.0582 
B(  4-O ,  5-C ) :   0.8098 B(  5-C ,  6-C ) :   0.9402 B(  5-C , 12-H ) :   0.9558 
B(  5-C , 13-H ) :   0.9516 B(  6-C , 14-H ) :   0.9705 B(  6-C , 15-H ) :   0.9734 
B(  6-C , 16-H ) :   0.9683 

-------
TIMINGS
-------

Total SCF time: 0 days 0 hours 0 min 18 sec 

Total time                  ....      18.059 sec
Sum of individual times     ....      17.605 sec  ( 97.5%)

SCF preparation             ....       0.188 sec  (  1.0%)
Fock matrix formation       ....      16.513 sec  ( 91.4%)
  Startup                   ....       0.042 sec  (  0.3% of F)
  Split-RI-J                ....       2.910 sec  ( 17.6% of F)
  XC integration            ....      13.051 sec  ( 79.0% of F)
    Basis function eval.    ....       2.398 sec  ( 18.4% of XC)
    Density eval.           ....       3.674 sec  ( 28.2% of XC)
    XC-Functional eval.     ....       1.880 sec  ( 14.4% of XC)
    XC-Potential eval.      ....       4.216 sec  ( 32.3% of XC)
Diagonalization             ....       0.000 sec  (  0.0%)
Density matrix formation    ....       0.239 sec  (  1.3%)
Total Energy calculation    ....       0.032 sec  (  0.2%)
Population analysis         ....       0.103 sec  (  0.6%)
Orbital Transformation      ....       0.061 sec  (  0.3%)
Orbital Orthonormalization  ....       0.000 sec  (  0.0%)
DIIS solution               ....       0.441 sec  (  2.4%)
  MO trafo                  ....       0.000 sec  (  0.0 % of DIIS)
  Orb grad                  ....       0.000 sec  (  0.0 % of DIIS)
  Energy W gradient         ....       0.000 sec  (  0.0 % of DIIS)
  DIIS error                ....       0.012 sec  (  2.7 % of DIIS)
  DIIS work                 ....       0.376 sec  ( 85.3 % of DIIS)
  Form Q                    ....       0.000 sec  (  0.0 % of DIIS)
  Form QpQm                 ....       0.000 sec  (  0.0 % of DIIS)
  Exp/Cayley                ....       0.000 sec  (  0.0 % of DIIS)
  Orb update                ....       0.000 sec  (  0.0 % of DIIS)
  Wake-sleep                ....       0.022 sec  (  5.1 % of DIIS)
SOSCF solution              ....       0.029 sec  (  0.2%)
  MO trafo                  ....       0.029 sec  ( 99.8 % of SOSCF)
  Orb grad                  ....       0.000 sec  (  0.0 % of SOSCF)
  Rot update                ....       0.000 sec  (  0.0 % of SOSCF)
  Step                      ....       0.000 sec  (  0.0 % of SOSCF)
Finished LeanSCF after  18.1 sec

Maximum memory used throughout the entire LEANSCF-calculation: 20.0 MB


-------------------------------------------------------------------------------
                          DFT DISPERSION CORRECTION                            
                                                                               
                                DFTD4 V3.4.0                                   
-------------------------------------------------------------------------------
The R2SCAN3C composite method is recognized
Using three-body term ABC
Active option DFTDOPT                   ...         5   

-------------------------   ----------------
Dispersion correction           -0.003906614
-------------------------   ----------------

------------------   -----------------
gCP correction             0.010304170
------------------   -----------------

-------------------------   --------------------
FINAL SINGLE POINT ENERGY      -346.936034052826
-------------------------   --------------------


------------------------------------------------------------------------------
                              ORCA PROPERTY CALCULATIONS
------------------------------------------------------------------------------

GBWName                                 ... sp_gas.gbw
Number of atoms                         ...     17
Number of basis functions               ...    193
Max core memory                         ...   1024 MB

Electric properties:
Dipole moment                           ... YES
Quadrupole moment                       ...  NO
Static polarizability (Dipole/Dipole)   ...  NO
Static polarizability (Dipole/Quad.)    ...  NO
Static polarizability (Quad./Quad.)     ...  NO
Static polarizability (Velocity)        ...  NO

Atomic electric properties:
Dipole moment                           ...  NO
Quadrupole moment                       ...  NO
Static polarizability                   ...  NO

Choice of electric origin               ... Center of mass
Position of electric origin             ...     0.000002     0.000012     0.000018

General magnetic properties:
Magnetizability                         ...  NO

EPR properties:
g-Tensor (aka g-matrix)                 ...  NO
Zero-Field splitting spin-orbit         ...  NO
Zero-field splitting spin-spin          ...  NO
Hyperfine couplings                     ...  NO (   0 nuclei)
Quadrupole couplings                    ...  NO (   0 nuclei)
Contact density                         ...  NO (   0 nuclei)

NMR properties:
Chemical shifts                         ...  NO (   0 nuclei)
Spin-rotation constants                 ...  NO (   0 nuclei)
Spin-spin couplings                     ...  NO (   0 nuclei,    0 pairs)

Choice of magnetic origin               ... GIAO
Position of magnetic origin             ...     0.000000     0.000000     0.000000

Properties with geometric perturbations:
SCF Hessian                             ...  NO
IR spectrum                             ...  NO
VCD spectrum                            ...  NO
X-ray spectroscopy properties:
SCF XES/XAS/RIXS spectra                ...  NO


-------------
DIPOLE MOMENT
-------------

Method             : SCF
Type of density    : Electron Density
Multiplicity       :   1
Irrep              :   0
Energy             :  -346.9424316094804794 Eh
Relativity type    : 
Basis              : AO
                                X                 Y                 Z
Electronic contribution:     -0.776252876      -2.076209992      -4.273047300
Nuclear contribution   :      1.055398189       2.724712935       4.837387105
                        -----------------------------------------
Total Dipole Moment    :      0.279145313       0.648502943       0.564339805
                        -----------------------------------------
Magnitude (a.u.)       :      0.903857062
Magnitude (Debye)      :      2.297422073



--------------------
Rotational spectrum 
--------------------
 
Rotational constants in cm-1:             0.159767             0.050946             0.042444 
Rotational constants in MHz :          4789.698779          1527.324649          1272.438922 

Dipole components along the rotational axes: 
x,y,z [a.u.] :     0.324898     0.824694    -0.176858 
x,y,z [Debye]:     0.825825     2.096205    -0.449538 

 

Dipole moment calculation done in   0.0 sec 

Maximum memory used throughout the entire PROP-calculation: 11.4 MB

--------------------------------
SUGGESTED CITATIONS FOR THIS RUN
--------------------------------

Below you find a list of papers that are relevant to this ORCA run
We neither can nor want to force you to cite these papers, but we appreciate if you do
You receive ORCA, which is the product of decades of hard work by many enthusiastic individuals, for free
The only thing we kindly ask in return is that you cite our papers,
We deeply appreciate it, if you show your appreciation for ORCA by not just citing the generic ORCA reference.

Please note that relegating all ORCA citations to the supporting information does *not* help us.
SI sections are not indexed - citations you put there will not count into any citation statistics
But we need these citations in order to attract the funding resources that allow us to do what we are doing

Therefore, if you are a happy ORCA user, please consider citing a few of the papers listed below in the main body of your paper

In addition to the list printed below, the program has created the file sp_gas.bibtex that contains the list in bibtex format
You can import this file easily into all common literature databanks and citation aid programs


List of essential papers. We consider these as the minimum necessary citations

  1. Neese,F.
     Software update: the ORCA program system, version 5.0
     WIRES Comput. Molec. Sci., 2022 12(1)e1606
     doi.org/10.1002/wcms.1606
  2. Grimme,S.; Hansen,A.; Ehlert,S.; Mewes,J.
     r2SCAN-3c: A 'Swiss army knife' composite electronic-structure method
     J. Chem. Phys., 2021 154 064103
     doi.org/10.1063/5.0040021

List of papers to cite with high priority. The work reported in these papers was absolutely
necessary for this run to complete.
Our perspective: the developers of density functionals and basis sets usually get cited in chemistry papers
Good! But without the algorithms to do something with them, the functionals or basis sets would not do anything.
Hence, in our opinion, the algorithm design and method developments papers are equally worthy of getting cited

  1. Neese,F.
     An improvement of the resolution of the identity approximation for the formation of the Coulomb matrix
     J. Comp. Chem., 2003 24(14)1740-1747
     doi.org/10.1002/jcc.10318
  2. Neese,F.
     The SHARK Integral Generation and Digestion System
     J. Comp. Chem., 2022  1-16
     doi.org/10.1002/jcc.26942
  3. Lehtola,S.; Steigemann,C.; Oliveira,M.; Marques,M.
     Recent developments in Libxc - A comprehensive library of functionals for density functional theory
     Software X, 2018 7 
     doi.org/10.1016/j.softx.2017.11.002
  4. Caldeweyher,E.; Bannwarth,C.; Grimme,S.
     Extension of the D3 dispersion coefficient model
     J. Chem. Phys., 2017 147 034112-XXXX
     doi.org/10.1063/1.4993215
  5. Caldeweyher,E.; Ehlert,S.; Hansen,A.; Neugebauer,H.; Spicher,S.; Bannwarth,C.; Grimme,S.
     A generally applicable atomic-charge dependent London dispersion correction
     J. Chem. Phys., 2019 150 154122-XXXX
     doi.org/10.1063/1.5090222
  6. Caldeweyher,E.; Mewes,J.; Ehlert,S.; Grimme,S.
     Extension and evaluation of the D4 London-dispersion model for periodic systems
     Phys. Chem. Chem. Phys., 2020 22(16)8499-8512
     doi.org/10.1039/D0CP00502A

List of suggested additional citations. These are papers that are important in the 'surrounding' of 
of this run, or papers that preceded the highly important papers. If you like your results we are grateful for a citation.

  1. Neese,F.
     The ORCA program system
     WIRES Comput. Molec. Sci., 2012 2(1)73-78
     doi.org/10.1002/wcms.81
  2. Neese,F.
     Software update: the ORCA program system, version 4.0
     WIRES Comput. Molec. Sci., 2018 8(1)1-6
     doi.org/10.1002/wcms.1327
  3. Neese,F.; Wennmohs,F.; Becker,U.; Riplinger,C.
     The ORCA quantum chemistry program package
     J. Chem. Phys., 2020 152 Art. No. L224108
     doi.org/10.1063/5.0004608

List of optional additional citations

  1. Neese,F.
     Approximate second-order SCF convergence for spin unrestricted wavefunctions
     Chem. Phys. Lett., 2000 325(1-3)93-98
     doi.org/10.1016/s0009-2614(00)00662-x

Timings for individual modules:

Sum of individual times          ...       19.618 sec (=   0.327 min)
Startup calculation              ...        1.065 sec (=   0.018 min)   5.4 %
SCF iterations                   ...       18.434 sec (=   0.307 min)  94.0 %
Property calculations            ...        0.119 sec (=   0.002 min)   0.6 %
                             ****ORCA TERMINATED NORMALLY****
TOTAL RUN TIME: 0 days 0 hours 0 minutes 20 seconds 379 msec
